default_name
  4881
  33.8150000 134.6420000  29.4010000  34.5029531 134.4984978  28.6755838
  33.0704078 133.9704652  29.2796584  34.2901742 134.7141492  30.2893150
  33.1890000 135.9620000  29.1850000  32.1211017 135.8160190  29.0225745
  33.3800000 136.9260000  30.3790000  33.2856887 136.3955754  31.3265518
  34.3721279 137.3721383  30.3101320  32.3920000 138.0720000  30.4240000
  31.0350000 137.8380000  30.5810000  30.6770238 136.8130141  30.6777306
  30.1250000 138.9050000  30.6160000  29.0605827 138.7037347  30.7368672
  30.5730000 140.2070000  30.4980000  29.8668324 141.0370036  30.5208304
  31.9100000 140.4510000  30.3520000  32.2678850 141.4749825  30.2448629
  32.8210000 139.3850000  30.3400000  33.8901872 139.5826546  30.2633760
  33.5900000 136.6030000  27.8340000  34.6700000 137.1930000  27.6820000
  32.6650000 136.4850000  26.8590000  31.8517547 135.9245402  27.0702254
  32.8290000 136.9790000  25.4980000  33.8340297 137.3538517  25.3043492
  32.4980000 135.8410000  24.4920000  31.4698947 135.5212036  24.6617943
  32.6580000 136.3110000  23.0160000  33.6860374 136.6305361  22.8453060
  32.4177266 135.4872953  22.3437798  31.9823881 137.1446117  22.8243250
  33.3770000 134.6200000  24.7870000  34.2366005 134.6812238  24.1195876
  33.7121614 134.7144786  25.8198796  32.7080000 133.3240000  24.6060000
  32.3729459 133.2285926  23.5731709  33.4056689 132.5189993  24.8369354
  31.8485049 133.2618484  25.2734617  32.0280000 138.2710000  25.2800000
  30.8310000 138.2980000  25.5610000  32.7060000 139.3280000  24.8010000
  33.7020548 139.1925668  24.7028569  32.1510000 140.6580000  24.5080000
  31.0760326 140.6953694  24.6844876  32.8330000 141.8160000  25.3190000
  32.3472312 142.7549026  25.0533125  32.7170000 141.5910000  26.8310000
  33.2029793 140.6524452  27.0975331  33.2004889 142.4127348  27.3592905
  31.6649357 141.5476148  27.1127446  34.2960000 142.0120000  24.9150000
  34.3506399 142.2603376  23.8550731  34.7296471 142.8227577  25.5004244
  34.8512195 141.0927018  25.1013409  32.2400000 140.9000000  22.9860000
  33.1550000 140.3990000  22.3310000  31.2890000 141.6460000  22.4480000
  30.5799785 142.0132469  23.0664801  31.2020000 141.9690000  21.0240000
  30.3159660 142.5913482  20.8985979  32.0912451 142.5505839  20.7808895
  31.1120000 140.7840000  20.0770000  31.4480000 140.9110000  18.8950000
  30.6990000 139.6370000  20.6100000  30.4499178 139.6431429  21.5887848
  30.5850000 138.3870000  19.8780000  29.9453906 137.7369861  20.4750602
  30.0855546 138.6239630  18.9385841  31.8860000 137.6600000  19.5770000
  31.8370000 136.4820000  19.2110000  33.0620000 138.3160000  19.7320000
  33.0828151 139.2983173  19.9659203  34.3320000 137.6500000  19.4050000
  34.2067915 136.5713556  19.4995953  34.7880000 137.9700000  17.9620000
  35.7614133 137.4908243  17.8573270  34.0659690 137.4694862  17.3168200
  34.8980000 139.4380000  17.5590000  33.9353091 139.9348175  17.6794137
  35.6454649 139.9418472  18.1718101  35.3190000 139.4950000  16.0960000
  36.2958753 139.0147365  16.0397799  34.5903248 138.9008379  15.5445444
  35.4020000 140.8740000  15.4930000  34.3882348 141.2321852  15.3138797
  35.8983780 141.5316488  16.2065868  36.1630000 140.8700000  14.2070000
  35.7029708 140.2610005  13.5454923  36.1978243 141.8077612  13.8335148
  37.1025366 140.5385342  14.3728324  35.5040000 137.8750000  20.3800000
  36.5260000 137.2200000  20.2120000  35.3800000 138.7590000  21.3740000
  34.5624267 139.3487706  21.4359984  36.4910000 139.0100000  22.3000000
  37.3850959 138.5113470  21.9257851  36.7930000 140.5210000  22.4490000
  36.0144910 140.9702991  23.0655658  37.7495172 140.5866234  22.9675253
  36.8820000 141.2600000  21.1320000  38.0060000 141.1410000  20.3160000
  38.8373057 140.5240880  20.6572475  38.0800000 141.7900000  19.0890000
  38.9658882 141.6827133  18.4630658  37.0200000 142.5730000  18.6610000
  37.0900000 143.2160000  17.4590000  37.9154146 143.0561536  16.9956001
  35.8910000 142.7080000  19.4510000  35.0546149 143.3208313  19.1148479
  35.8270000 142.0560000  20.6810000  34.9426126 142.1628728  21.3091219
  36.2810000 138.3240000  23.6520000  35.4190000 138.7360000  24.4260000
  37.0380000 137.2370000  23.8930000  37.6717303 136.9421666  23.1639194
  36.9880000 136.4540000  25.1260000  35.9827962 136.5032090  25.5446204
  37.3430000 134.9740000  24.8680000  36.7657752 134.6476919  24.0028793
  38.4062362 134.9315578  24.6317216  37.0490000 134.0590000  26.0480000
  37.3314874 134.5970652  26.9528688  35.9745526 133.8756697  26.0553985
  37.7910000 132.7280000  25.9960000  37.2812399 132.0440559  26.6745751
  37.7139181 132.3516255  24.9759509  39.2560000 132.8320000  26.3880000
  39.7586017 133.4581336  25.6508102  39.3100902 133.3090901  27.3665492
  39.9240000 131.5010000  26.4470000  39.8743674 131.0589338  25.5402399
  40.8915973 131.6213298  26.7103937  39.4586957 130.9208026  27.1303462
  37.9850000 137.0680000  26.1120000  39.1480000 137.2820000  25.7720000
  37.5200000 137.3410000  27.3390000  36.5448061 137.1444081  27.5134931
  38.3110000 137.9560000  28.4160000  38.9121668 138.7739349  28.0189104
  37.3720000 138.5170000  29.5020000  36.5058947 137.8786065  29.3276024
  37.7561939 138.3407711  30.5067081  36.9540000 140.0050000  29.3620000
  37.7819769 140.6056703  29.7384975  36.6130000 140.4460000  27.8940000
  35.7847512 139.8460463  27.5169611  36.3311717 141.4989095  27.8865669
  37.4860382 140.2995957  27.2580201  35.8690000 140.3370000  30.3340000
  36.2246642 140.1633469  31.3496018  35.5881045 141.3842165  30.2220334
  35.0015408 139.7059921  30.1404992  39.2570000 136.9470000  28.9760000
  38.8560000 135.8160000  29.2250000  40.5100000 137.3290000  29.1210000
  40.7511651 138.2546728  28.7968570  41.5820000 136.4670000  29.6170000
  41.2874752 135.4194028  29.6794046  42.8570000 136.5720000  28.7400000
  43.1523445 137.6195571  28.6808813  43.9990000 135.7560000  29.3250000
  43.7045500 134.7081839  29.3840048  44.8777946 135.8505511  28.6871280
  44.2344276 136.1235077  30.3238061  42.5810000 136.1660000  27.2890000
  41.8192369 136.8211925  26.8664579  43.4980153 136.2527188  26.7061943
  42.2290682 135.1347748  27.2603745  41.8460000 136.8040000  31.0900000
  41.6200000 135.9620000  31.9430000  42.2760000 138.0390000  31.3910000
  42.4614973 138.6908122  30.6421135  42.5610000 138.4610000  32.7670000
  41.7872650 138.0833918  33.4354650  43.9330000 137.9090000  33.2350000
  44.0477117 138.1627179  34.2888348  43.9070071 136.8250255  33.1235383
  45.1020000 138.4690000  32.4510000  44.9862017 138.1475721  31.4159272
  45.0401598 139.5560297  32.5024226  46.4380000 138.0190000  32.9680000
  46.5019594 138.1647826  34.0463115  46.6069722 136.9680626  32.7333123
  47.4810000 138.8160000  32.3250000  47.7113934 139.7018810  32.7518878
  48.1180000 138.4630000  31.2150000  47.8570000 137.2950000  30.6330000
  47.1708148 136.6744937  31.0382429  48.3463033 137.0344353  29.7887323
  49.0410000 139.2620000  30.6900000  49.2577805 140.1408254  31.1380761
  49.5214826 138.9867668  29.8453214  42.5190000 139.9800000  32.9070000
  42.6950000 140.6830000  31.9140000  42.3290000 140.4720000  34.1600000
  42.1857556 139.7976012  34.8980831  42.3300000 141.9000000  34.5110000
  41.6695215 142.4522362  33.8424923  41.8290000 142.0800000  35.9580000
  41.0848140 141.3016195  36.1265535  42.6880231 141.9071667  36.6063117
  41.2160000 143.4510000  36.2760000  41.9891819 144.2023977  36.1157124
  40.3982250 143.6165570  35.5746178  40.6820000 143.5610000  37.7270000
  41.4802030 143.2139556  38.3831488  40.4929883 144.6181836  37.9133782
  39.4170000 142.7640000  38.0030000  38.6689019 143.0594622  37.2673697
  39.6534104 141.7075693  37.8758642  38.8790000 142.9920000  39.3800000
  38.6594694 143.9707815  39.4978675  38.0424018 142.4412766  39.5100276
  39.5718904 142.7178802  40.0618066  43.7660000 142.3830000  34.3900000
  44.6780000 141.6720000  34.8200000  43.9700000 143.5360000  33.7410000
  43.1624831 143.9524826  33.2999127  45.2850000 144.1560000  33.5160000
  46.0697559 143.7622263  34.1619100  45.7430000 144.0580000  32.0170000
  46.6233925 144.6871269  31.8858178  46.0830000 142.6090000  31.6160000
  45.2028995 141.9793191  31.7464825  46.3953455 142.5841479  30.5720060
  46.8915222 142.2374332  32.2455467  44.7130000 144.7180000  31.0510000
  43.9114662 143.9917216  30.9162256  44.3250207 145.5943405  31.5702291
  45.2480000 145.1280000  29.7080000  45.6357611 144.2520505  29.1879485
  44.4475558 145.5751109  29.1185255  46.0493177 145.8546681  29.8419523
  45.3170000 145.6220000  34.0390000  46.3330000 146.3090000  33.8940000
  44.1970000 146.0820000  34.6090000  43.4117595 145.4507172  34.6795600
  44.0450000 147.4390000  35.1330000  44.8350835 147.5837849  35.8698206
  44.1998946 148.1202356  34.2963250  42.7040000 147.7460000  35.7790000
  41.8740000 146.8470000  35.9630000  42.4990000 149.0390000  36.1410000
  43.2822988 149.6594858  35.9942361  41.2910000 149.5790000  36.8010000
  40.4100791 149.0359117  36.4587535  41.3970000 149.4310000  38.3220000
  42.3535985 149.8542675  38.6283711  40.5859834 150.0078609  38.7665038
  41.3140000 148.0810000  38.7610000  41.3861324 148.0506551  39.7178051
  41.0030000 151.0550000  36.4100000  41.6570000 151.5990000  35.5110000
  40.0180000 151.6630000  37.0810000  39.5493279 151.1065604  37.7815861
  39.5760000 153.0450000  36.8820000  40.3977883 153.7040003  37.1621460
  39.3502768 153.1762559  35.8237371  38.3490000 153.4110000  37.6980000
  37.8600000 152.5940000  38.4920000  37.8450000 154.6550000  37.5100000
  38.3487682 155.2667796  36.8838669  36.6540000 155.1890000  38.2040000
  36.7611595 155.0499277  39.2797671  36.4890000 156.6890000  37.9170000
  35.7101325 157.0560808  38.5853684  37.4365223 157.1660297  38.1674879
  36.1440000 156.9980000  36.5730000  36.0596741 157.9492441  36.4749000
  35.3810000 154.4150000  37.7920000  34.5270000 154.0950000  38.6300000
  35.2950000 154.1260000  36.4820000  36.0728899 154.5115396  35.9659130
  34.2500000 153.4200000  35.7380000  33.2658227 153.8275359  35.9691030
  34.5220000 153.6080000  34.2130000  33.7171403 153.1730135  33.6204742
  34.5870010 154.6765180  34.0077095  35.8180000 152.9880000  33.7090000
  37.0350000 153.6400000  33.8770000  37.0498841 154.6232521  34.3472060
  38.2340000 153.0480000  33.4500000  39.1785450 153.5750313  33.5848090
  38.2180000 151.8000000  32.8600000  39.1482097 151.3336035  32.5355248
  37.0200000 151.1440000  32.6820000  37.0064805 150.1588171  32.2158111
  35.8210000 151.7390000  33.0980000  34.8738686 151.2219631  32.9440039
  34.1710000 151.9070000  36.1150000  33.0760000 151.3930000  36.3740000
  35.3380000 151.2400000  36.1340000  36.1539884 151.8068546  35.9525114
  35.5280000 149.8110000  36.3860000  35.3422556 149.6254213  37.4439030
  34.8009274 149.2614529  35.7881181  36.9260000 149.3240000  36.0360000
  37.9030000 150.0380000  36.2750000  37.0420000 148.1140000  35.4410000
  36.2031516 147.5764394  35.2752854  38.3510000 147.4920000  35.1210000
  39.1569566 148.1109309  35.5152812  38.4580000 146.0800000  35.7500000
  37.8316685 145.4275327  35.1416460  39.4978333 145.7632707  35.6691965
  38.0170000 145.9980000  37.1950000  38.6480000 146.6670000  38.0470000
  37.0520000 145.2540000  37.4780000  38.7220000 147.4010000  33.6330000
  37.8840000 147.5810000  32.7550000  40.0080000 147.1080000  33.3800000
  40.6180475 147.1010457  34.1849180  40.6030000 146.9170000  32.0570000
  39.8153636 146.9428205  31.3039652  41.6790000 147.9720000  31.7130000
  42.5038427 147.8919493  32.4210443  42.2020000 147.7320000  30.2890000
  41.3777532 147.8123533  29.5802961  42.9603994 148.4773609  30.0494831
  42.6395445 146.7357166  30.2251767  41.0760000 149.3930000  31.8490000
  40.5221330 149.5762648  30.9282687  40.3811130 149.3480446  32.6875765
  42.0130000 150.4560000  32.0620000  42.7079793 150.5018787  31.2235498
  41.4778289 151.4022111  32.1418481  42.5669612 150.2736570  32.9828571
  41.1240000 145.4850000  32.0010000  41.8400000 145.0570000  32.9020000
  40.7190000 144.7430000  30.9510000  40.1308191 145.2098970  30.2756114
  41.0470000 143.3390000  30.7290000  41.6426591 142.9491835  31.5544287
  39.7480000 142.5350000  30.6410000  39.0896243 142.9997548  29.9070765
  40.0561334 141.5531468  30.2816699  39.0120000 142.3830000  31.9530000
  38.0890000 143.3390000  32.3740000  37.9201846 144.2166529  31.7500399
  37.3870000 143.1880000  33.5700000  36.6739242 143.9484666  33.8883007
  37.6020000 142.0660000  34.3570000  36.9100000 141.8960000  35.5390000
  36.3018131 142.6152658  35.7243783  38.5150000 141.1050000  33.9550000
  38.7047781 140.2328608  34.5806660  39.1920000 141.2560000  32.7460000
  39.8788669 140.4811538  32.4055189  41.8490000 143.0590000  29.4640000
  41.7350000 143.7810000  28.4750000  42.6190000 141.9680000  29.4870000
  42.7036313 141.4564594  30.3537543  43.2990000 141.4540000  28.3180000
  43.6102458 142.2879015  27.6888470  44.5390000 140.6370000  28.6970000
  45.2498757 141.3733475  29.0718965  44.2629759 139.9563637  29.5023850
  45.1860000 139.8370000  27.5470000  44.4387529 139.1486205  27.1522137
  45.6820000 140.7270000  26.4400000  46.4296706 141.4153978  26.8339491
  46.1285654 140.1167584  25.6549616  44.8476196 141.2945548  26.0279425
  46.3240000 139.0030000  28.0460000  45.9594241 138.3017563  28.7966272
  46.7615327 138.4498660  27.2149108  47.0810862 139.6490682  28.4904271
  42.2460000 140.5310000  27.6820000  41.6490000 139.7220000  28.3800000
  41.9580000 140.7040000  26.3930000  42.3976139 141.4501406  25.8732758
  40.9740000 139.8690000  25.7080000  40.7022529 139.0105183  26.3222165
  39.7110000 140.6650000  25.3970000  39.9656442 141.5230324  24.7748772
  39.0019705 140.0296704  24.8662140  39.2613440 141.0120662  26.3272977
  41.6130000 139.3210000  24.4320000  42.6040000 139.8630000  23.9450000
  41.0780000 138.2220000  23.9300000  40.3797480 137.7327347  24.4714452
  41.5750000 137.5930000  22.7160000  42.1909843 138.2375045  22.0888824
  42.3630000 136.2820000  23.0490000  43.1823952 136.5509608  23.7155974
  41.5060000 135.2190000  23.7060000  40.6865994 134.9491709  23.0397601
  42.1131080 134.3370358  23.9101073  41.1009393 135.6050463  24.6414107
  43.1070000 135.7350000  21.8320000  42.4218919 135.0505909  21.3316883
  43.3073932 136.5870631  21.1824383  44.4240000 135.0060000  22.1410000
  44.2243337 134.1534806  22.7901871  44.8733321 134.6567394  21.2113673
  45.1098345 135.6899528  22.6409394  40.4360000 137.4170000  21.6990000
  39.3580000 136.9460000  22.0600000  40.6580000 137.8570000  20.4460000
  41.5213522 138.3509618  20.2707173  39.7120000 137.6940000  19.3360000
  38.7170726 137.9929378  19.6659316  40.1080000 138.5570000  18.1170000
  40.1021115 139.5971975  18.4426590  41.1151671 138.2800214  17.8055562
  39.1630000 138.4140000  16.9100000  38.5900000 137.3710000  16.6370000
  38.9870000 139.4490000  16.1430000  38.3724328 139.3830943  15.3442113
  39.4656752 140.3140405  16.3495811  39.7040000 136.2110000  18.9820000
  40.6830000 135.7000000  18.4300000  38.6180000 135.5210000  19.3440000
  37.9326269 136.0293788  19.8842907  38.4250000 134.0780000  19.1560000
  39.2829234 133.4828518  19.4688342  37.1380000 133.5450000  19.8600000
  37.0135044 132.4913404  19.6101947  37.2400000 133.7020000  21.3960000
  37.3640544 134.7555178  21.6466220  36.3303014 133.3229544  21.8616969
  38.0975981 133.1382810  21.7632134  35.8510000 134.1870000  19.2670000
  35.7263454 135.1607492  19.7406819  36.0185968 134.3221141  18.1984706
  34.5890000 133.3500000  19.4830000  34.4204800 133.2148427  20.5513788
  33.7332398 133.8616747  19.0425881  34.7127325 132.3762061  19.0091692
  38.4750000 133.6260000  17.6790000  38.5830000 132.4120000  17.4090000
  38.3900000 134.5790000  16.7270000  38.1711909 135.5399509  16.9478964
  38.4490000 134.1890000  15.3250000  38.2124141 133.1340259  15.1865947
  37.5380000 135.0120000  14.4310000  37.4996069 134.5194017  13.4594172
  36.1400000 135.1590000  14.9750000  36.1775483 135.6519702  15.9464269
  35.5429907 135.7577537  14.2871243  35.6870624 134.1737288  15.0854030
  38.1540000 136.2570000  14.2200000  37.5967192 136.7982494  13.6560075
  39.8670000 134.1470000  14.7490000  40.0530000 133.4820000  13.7300000
  40.8580000 134.7920000  15.3850000  40.6813231 135.2834145  16.2495209
  42.1910000 134.8910000  14.7910000  42.4427206 133.9798397  14.2483005
  42.1940000 136.0700000  13.8010000  43.1181697 136.1052368  13.2241396
  41.3578612 135.8595745  13.1341469  41.9750000 137.4070000  14.4350000
  42.3330000 137.6500000  15.5790000  41.4660000 138.3400000  13.6760000
  41.2985230 139.2605796  14.0562427  41.2422245 138.1365906  12.7123351
  43.4130000 135.0210000  15.7660000  44.5550000 135.0840000  15.2900000
  43.1700000 135.0960000  17.0780000  42.2112926 135.0896469  17.3957092
  44.2290000 135.1870000  18.0770000  43.8683604 134.6541113  18.9568113
  45.0891945 134.6617315  17.6619604  44.6520000 136.5770000  18.4840000
  45.4690000 136.7180000  19.3920000  44.0930000 137.6140000  17.8400000
  43.4578867 137.3977058  17.0850514  44.3840000 139.0140000  18.1180000
  45.4396240 139.2192176  17.9401155  43.5420000 139.9210000  17.1930000
  43.7428208 139.5930905  16.1730757  42.4976974 139.7267816  17.4375633
  43.8230000 141.4220000  17.3110000  44.0735176 141.6157617  18.3539756
  44.6913134 141.6277051  16.6850475  42.6710000 142.3220000  16.8910000
  41.5010000 141.8600000  16.8590000  42.9460000 143.5050000  16.5930000
  44.1180000 139.3330000  19.5810000  43.0850000 138.9370000  20.1000000
  45.0810000 140.0040000  20.2520000  45.9464702 140.1637538  19.7564808
  44.9840000 140.4540000  21.6490000  44.2073337 139.8765845  22.1504779
  46.2850000 140.2780000  22.4080000  47.1068386 140.5200743  21.7341450
  46.2860713 140.9745450  23.2464056  46.4550000 138.8780000  22.9210000
  45.5699627 138.6761032  23.5243634  46.4544020 138.2269177  22.0468200
  47.6980000 138.6150000  23.7450000  48.4630000 139.5640000  24.0450000
  47.9060000 137.4290000  24.0840000  44.5480000 141.9000000  21.6940000
  45.0570000 142.7280000  20.9480000  43.5790000 142.1910000  22.5500000
  43.1746664 141.4368457  23.0865305  43.0080000 143.5260000  22.6940000
  43.6792843 144.3236227  22.3757633  41.6510000 143.6740000  21.9200000
  41.2043377 144.6291558  22.1961694  41.8450000 143.6220000  20.4070000
  42.2912278 142.6668808  20.1299999  40.8794675 143.7283745  19.9124983
  42.5030513 144.4335564  20.0964420  40.6200000 142.6540000  22.3780000
  40.4216518 142.7893649  23.4412198  39.6963723 142.7927433  21.8160731
  41.0020263 141.6478330  22.2054176  42.8300000 143.8800000  24.1800000
  42.9490000 143.0200000  25.0530000  42.5210000 145.1610000  24.4430000
  42.5241392 145.8240564  23.6811301  42.1880000 145.6420000  25.7740000
  42.3879031 144.9136877  26.5599384  42.9300000 146.9200000  26.0990000
  42.7323682 147.6622101  25.3255881  42.5926692 147.3015633  27.0627000
  44.0002410 146.7181764  26.1431660  40.6740000 145.8780000  25.7510000
  40.1200000 146.3190000  24.7320000  40.0080000 145.5120000  26.8520000
  40.5379822 145.0384610  27.5696204  38.5720000 145.6620000  27.0400000
  38.1405614 146.3158935  26.2821193  37.8350000 144.2880000  26.9910000
  38.3465480 143.5984127  27.6624814  36.3850000 144.4180000  27.4100000
  35.8726480 145.1071229  26.7386536  35.9038293 143.4410604  27.3634786
  36.3337430 144.7994889  28.4297748  37.9100000 143.6750000  25.6050000
  38.9537213 143.5195963  25.3318742  37.3877400 142.7182700  25.6015455
  37.4424938 144.3461601  24.8845259  38.3470000 146.4170000  28.3630000
  38.6620000 145.8990000  29.4370000  37.8450000 147.6570000  28.2650000
  37.7304496 148.0530143  27.3429641  37.4510000 148.4660000  29.4230000
  38.0981365 148.2096238  30.2617996  37.5600000 149.9900000  29.1610000
  36.8701144 150.2194153  28.3488881  37.2282086 150.4898671  30.0710260
  38.9450000 150.4740000  28.7970000  39.5525290 150.5181584  29.7009134
  39.3913379 149.7708089  28.0938593  38.8820000 151.8380000  28.1690000
  39.2789266 151.7586172  27.1569493  37.8349675 152.1378963  28.1255889
  39.6680000 152.8690000  28.9370000  40.6423029 152.4424056  29.1754359
  39.8005187 153.7399216  28.2951016  38.9870000 153.2780000  30.1910000
  38.8644949 152.4712045  30.7861245  39.5488370 153.9673486  30.6697877
  38.0843472 153.6737107  29.9702510  35.9950000 148.0680000  29.6740000
  35.1640000 148.0890000  28.7570000  35.7150000 147.6450000  30.9050000
  36.4847713 147.6446160  31.5588741  34.4150000 147.1820000  31.3690000
  33.6974052 147.1392511  30.5496531  34.5990000 145.7520000  31.9420000
  35.6024450 145.4686535  31.6243334  34.5785383 145.8593750  33.0265054
  33.6140000 144.6780000  31.5220000  32.6156176 144.9897478  31.8288333
  33.6340000 144.4490000  30.0100000  34.6320099 144.1367580  29.7024614
  32.9146734 143.6723996  29.7500734  33.3695919 145.3744008  29.4983144
  33.9370000 143.3950000  32.2170000  33.8739416 143.5395424  33.2955317
  33.2264061 142.6269118  31.9117165  34.9465694 143.0814524  31.9513752
  33.9110000 148.1540000  32.4460000  34.6520000 148.4900000  33.3750000
  32.6720000 148.6260000  32.2990000  32.1380827 148.3258259  31.4959264
  32.0510000 149.5580000  33.2330000  32.6120057 149.5775284  34.1673396
  32.0380000 150.9710000  32.6400000  33.0802638 151.2829941  32.5733281
  31.6226773 150.8764920  31.6366679  31.2470000 152.0100000  33.4200000
  30.3051395 151.5161621  33.6590056  31.7698673 152.2603196  34.3430651
  30.9680000 153.2780000  32.6380000  29.9370000 153.3420000  31.9250000
  31.8260000 154.1860000  32.6930000  30.6540000 149.1140000  33.5020000
  29.8890000 148.9090000  32.5620000  30.2890000 149.0090000  34.7800000
  30.9393823 149.1857493  35.5322379  28.9370000 148.6230000  35.1190000
  28.6952382 147.6658257  34.6569743  28.7970000 148.4840000  36.6260000
  29.5747697 147.8099996  36.9850223  28.9314359 149.4666829  37.0780634
  27.5250000 147.9700000  36.9830000  27.4672282 147.8939204  37.9382351
  27.9710000 149.6910000  34.6040000  28.3040000 150.8800000  34.5280000
  26.8050000 149.2400000  34.1530000  26.6671145 148.2399970  34.1201230
  25.6930000 150.1030000  33.7790000  26.0613745 150.9381191  33.1832017
  24.6540000 149.3270000  32.9490000  24.3417616 148.4631949  33.5358962
  23.8001562 149.9857128  32.7904183  25.1910000 148.8580000  31.6010000
  25.3951189 149.7594073  31.0231582  26.1189508 148.3068271  31.7533737
  24.2390000 147.9910000  30.8200000  24.5430000 146.8400000  30.4940000
  23.0830000 148.5290000  30.4650000  22.4151560 147.9825390  29.9401513
  22.8740416 149.4835215  30.7205902  25.2070000 150.3650000  35.2020000
  25.2570000 149.4360000  36.0150000  24.8930000 151.6100000  35.5620000
  24.9530368 152.3548415  34.8825104  24.5470000 151.9580000  36.9510000
  24.1083947 152.9555023  36.9777166  23.5370000 150.9630000  37.5340000
  23.9565638 149.9632509  37.4218964  23.4226257 151.1917561  38.5935703
  22.1630000 151.0220000  36.8460000  21.8203369 152.0563952  36.8726368
  22.2946400 150.7099709  35.8099446  21.1320000 150.1300000  37.5160000
  21.2187061 150.2383131  38.5971333  20.1360836 150.4395265  37.1990722
  21.3580000 148.6640000  37.1300000  22.3864616 148.4071031  37.3837151
  20.6752024 148.0542939  37.7217305  21.1240000 148.4050000  35.6750000
  21.7568922 148.9695520  35.1265218  21.2862291 147.4280534  35.4766137
  20.1709366 148.6425787  35.4397861  25.8280000 152.0460000  37.8280000
  25.8190000 151.7120000  39.0170000  26.9320000 152.5090000  37.2100000
  26.8705796 152.6922482  36.2186640  28.2010000 152.7720000  37.8860000
  28.3957495 152.1076888  38.7279397  29.3750000 152.6820000  36.9110000
  29.1988173 153.3486606  36.0668298  30.2934879 152.9752861  37.4193930
  29.4709617 151.6577916  36.5506005  28.0820000 154.1940000  38.4390000
  27.3890000 155.0350000  37.8510000  28.7300000 154.4340000  39.5850000
  29.1964403 153.6408474  40.0014634  28.7650000 155.7100000  40.2960000
  27.7532813 156.0484854  40.5194996  29.5340000 155.5310000  41.6310000
  29.0574673 154.6959697  42.1445564  30.5527300 155.2554935  41.3582631
  29.5660000 156.7510000  42.5600000  30.2938072 156.5391018  43.3432603
  29.9087265 157.5980989  41.9658081  28.2230000 157.0860000  43.1930000
  27.4193277 156.6439683  42.6040877  28.1875746 156.6919272  44.2086531
  28.0240000 158.5340000  43.2450000  28.3713529 159.0189966  44.0599992
  27.4320000 159.2440000  42.2880000  26.9420000 158.6430000  41.2110000
  27.0188683 157.6403219  41.1170425  26.4944756 159.1910543  40.4902657
  27.3130000 160.5560000  42.4070000  27.6734250 161.0202474  43.2283819
  26.8622598 161.0874830  41.6759338  29.4070000 156.8050000  39.4260000
  28.8780000 157.9190000  39.3550000  30.5260000 156.4640000  38.7370000
  30.9032624 155.5385210  38.8828117  31.2770000 157.3950000  37.8900000
  30.7473308 158.3452025  37.8217004  32.6700000 157.6510000  38.4870000
  33.2350323 156.7197442  38.4469949  33.2205990 158.4322434  37.9629776
  32.6160000 158.0550000  39.9180000  32.2360000 159.3310000  40.2910000
  32.2690000 159.3390000  41.6110000  32.0017558 160.2676019  42.1153591
  32.6410000 158.1520000  42.0990000  32.7573964 157.8893852  43.0672898
  32.8460000 157.3190000  41.0270000  33.1369780 156.2814176  41.1908775
  31.3710000 156.9410000  36.4190000  32.4460000 156.4670000  35.9980000
  30.2700000 157.0960000  35.6170000  28.9530000 157.4570000  35.9330000
  28.9926971 158.3945912  36.4874791  28.5412783 156.6751908  36.5712466
  28.2050000 157.5870000  34.6250000  28.2957620 158.5969644  34.2252084
  27.1509864 157.3418612  34.7556282  28.8970000 156.5620000  33.7190000
  28.8549232 156.7779454  32.6514345  28.5062772 155.5610968  33.9023798
  30.3330000 156.6560000  34.2090000  30.7393097 155.6445633  34.2115593
  31.1860000 157.5460000  33.2990000  31.1500000 158.7660000  33.4460000
  31.9700000 156.9350000  32.3780000  32.0251144 155.9270797  32.4120356
  32.8330000 157.6450000  31.4350000  32.3524541 158.5754759  31.1326931
  34.2010000 157.9800000  32.0730000  34.6460676 158.7642295  31.4606290
  33.9923067 158.3715807  33.0685961  35.1790000 156.7980000  32.1820000
  34.8041829 156.0624574  32.8937515  35.2413145 156.3460076  31.1920900
  36.5610000 157.2180000  32.6070000  36.7540000 157.8980000  33.6220000
  37.5600000 156.7810000  31.8560000  38.5103934 157.0295373  32.0906980
  37.3670753 156.2011164  31.0518754  33.0250000 156.9290000  30.0760000
  33.4380000 157.5800000  29.1210000  32.7420000 155.6200000  29.9910000
  32.4486517 155.1801618  30.8515745  32.9440000 154.7750000  28.8140000
  33.9821390 154.8254848  28.4856436  32.6140000 153.3300000  29.1640000
  32.4450586 153.3623436  30.2403419  31.7004775 153.0100208  28.6628115
  33.7140000 152.3620000  28.8610000  33.9066282 152.3786137  27.7882842
  34.9770000 152.7210000  29.6040000  34.7852650 152.7041438  30.6768711
  35.7580520 151.9996913  29.3636413  35.3014838 153.7189085  29.3090605
  33.2880000 150.9730000  29.1510000  32.4218061 150.7226927  28.5385020
  34.1039102 150.2870997  28.9231131  33.0244156 150.8858230  30.2050505
  32.2020000 155.2150000  27.5290000  32.8120000 155.2300000  26.4440000
  30.9160000 155.5880000  27.6420000  30.4162884 155.4989833  28.5151917
  30.1910000 156.0840000  26.4780000  30.2730161 155.3587035  25.6684831
  28.7070000 156.3060000  26.7880000  28.3554750 155.3034056  27.0315855
  28.6204143 156.9444140  27.6672215  27.8520000 156.8860000  25.6470000
  28.2927650 157.8369612  25.3478348  27.7790000 155.9590000  24.4410000
  27.3378845 155.0079310  24.7393014  27.1638650 156.4172240  23.6665709
  28.7829267 155.7873909  24.0526936  26.4760000 157.2160000  26.1260000
  26.5365196 157.9526454  26.9271182  25.8917401 157.6240807  25.3012505
  25.9943317 156.3123968  26.4996252  30.8470000 157.3880000  26.0060000
  31.0870000 157.5500000  24.8160000  31.1740000 158.2920000  26.9480000
  30.8853224 158.0948762  27.8955795  31.8290000 159.5650000  26.6760000
  31.2473609 160.1280711  25.9461054  31.9500000 160.4100000  27.9720000
  30.9322860 160.5100723  28.3492838  32.5559353 159.8719610  28.7010107
  32.5410000 161.7870000  27.7420000  31.8420000 162.7540000  27.0270000
  30.8505765 162.5102686  26.6451965  32.3860000 164.0130000  26.7960000
  31.8226057 164.7560687  26.2316087  33.6600000 164.3120000  27.2580000
  34.1840000 165.5630000  27.0390000  33.5855992 166.1419422  26.5611486
  34.3810000 163.3610000  27.9620000  35.3797813 163.5909707  28.3330119
  33.8230000 162.1050000  28.1950000  34.3892423 161.3496452  28.7398933
  33.1880000 159.3220000  26.0190000  33.4630000 159.9140000  24.9680000
  34.0050000 158.4120000  26.5970000  33.7389384 158.0100856  27.4845671
  35.2960000 158.0260000  26.0180000  35.9275989 158.9097345  25.9274718
  36.0170000 156.9980000  26.8860000  35.2580698 156.4543893  27.4486825
  36.5349645 156.3103545  26.2174519  37.0100000 157.6120000  27.8440000
  37.4030434 158.5428087  27.4350833  36.4532062 157.8233068  28.7569235
  38.1560000 156.6760000  28.1580000  37.9370000 155.7070000  28.9160000
  39.2610000 156.8810000  27.6050000  35.1350000 157.4730000  24.6020000
  35.8840000 157.8680000  23.7280000  34.1310000 156.6050000  24.3580000
  33.5682035 156.3041600  25.1408504  33.8620000 156.0130000  23.0360000
  34.7500392 155.4897775  22.6814245  32.7040000 155.0150000  23.1120000
  32.8541375 154.2777121  22.3233527  32.7579317 154.5233675  24.0833336
  31.4290000 155.6190000  22.9580000  30.7470303 154.9457226  23.0146982
  33.5790000 157.0770000  21.9790000  33.9830000 156.9070000  20.8300000
  32.8750000 158.1610000  22.3800000  32.5919695 158.1786883  23.3493710
  32.5140000 159.2970000  21.5310000  32.0769579 158.9370052  20.5996047
  31.4950000 160.1900000  22.2350000  31.8521970 160.3423403  23.2534802
  31.4861178 161.1436397  21.7071815  30.1020000 159.6250000  22.2720000
  29.6515728 159.6875802  21.2813942  30.1343119 158.5831343  22.5907065
  29.2770000 160.4250000  23.2510000  29.7566419 160.3578050  24.2274873
  29.2749664 161.4630261  22.9184386  27.8640000 159.9300000  23.3530000
  27.2954494 160.2877843  22.4946054  27.8650078 158.8400159  23.3587274
  27.2400000 160.4300000  24.6020000  27.2385774 161.4399849  24.5966984
  26.2900466 160.0922875  24.6623230  27.7664325 160.0982282  25.3975472
  33.7340000 160.1310000  21.2320000  33.9430000 160.5510000  20.0950000
  34.5060000 160.4060000  22.2700000  34.1643977 160.1232057  23.1774330
  35.7090000 161.1980000  22.2090000  35.5520372 162.1260865  21.6593481
  36.0820000 161.5410000  23.6490000  35.1149678 161.8545708  24.0422192
  36.3684631 160.5927951  24.1039136  37.1170000 162.5850000  23.9720000
  38.0519668 162.0636594  24.1772850  37.3350000 163.5970000  22.8530000
  36.4005164 164.1191011  22.6474528  38.0940229 164.3177857  23.1570608
  37.6665585 163.0787526  21.9532283  36.7360000 163.2850000  25.2080000
  36.6738916 162.5688497  26.0273722  37.4846550 164.0414794  25.4432781
  35.7666690 163.7642210  25.0707280  36.8140000 160.4940000  21.3790000
  37.5220000 161.1910000  20.6620000  36.8850000 159.1330000  21.3670000
  36.3100013 158.6361122  22.0322656  37.8050000 158.3520000  20.5160000
  38.7911653 158.8154254  20.5445327  37.9340000 156.8960000  20.9810000
  36.9518045 156.6688408  21.3954755  38.1316368 156.2381567  20.1346656
  38.9890000 156.6830000  22.0410000  40.3440000 156.7950000  21.7330000
  40.6301133 157.0582763  20.7147052  41.3270000 156.5770000  22.7000000
  42.3815392 156.6763989  22.4427672  40.9580000 156.2140000  23.9880000
  41.9290000 156.0320000  24.9420000  42.8162912 156.1815498  24.6074125
  39.6150000 156.0560000  24.3090000  39.3200194 155.7598494  25.3156686
  38.6410000 156.2790000  23.3330000  37.5870315 156.1383052  23.5726988
  37.3920000 158.4010000  19.0520000  38.2550000 158.2530000  18.2070000
  36.0980000 158.6520000  18.7450000  35.4329773 158.7343585  19.5006859
  35.6110000 158.8050000  17.3710000  35.9627086 157.9653679  16.7714851
  34.0680000 158.8430000  17.3100000  33.7313333 159.3830884  18.1949063
  33.8022505 159.4084842  16.4168567  33.4010000 157.4850000  17.2640000
  33.6247060 157.0087611  16.3094043  33.7872966 156.8690582  18.0760916
  31.8900000 157.6360000  17.4150000  31.7055018 158.2329487  18.3081471
  31.5224696 158.1705249  16.5390411  31.1710000 156.3150000  17.5360000
  31.2468943 155.7904305  16.5835466  31.6563917 155.7260745  18.3142421
  29.7390000 156.5080000  17.8820000  29.2889398 157.0533245  17.1607741
  29.2862316 155.6081814  17.9556703  29.6684524 156.9936830  18.7647424
  36.1440000 160.1000000  16.7720000  36.4940000 160.1320000  15.5850000
  36.1290000 161.1830000  17.5770000  35.6876158 161.0834063  18.4799731
  36.6100000 162.5010000  17.1850000  36.3005865 162.7854671  16.1792958
  36.1050000 163.5730000  18.2090000  36.3658657 163.2265322  19.2090048
  36.7190000 164.9620000  17.9720000  36.4581603 165.3093567  16.9722967
  36.3314422 165.6622113  18.7120026  37.8034390 164.9008524  18.0633898
  34.5610000 163.6630000  18.2070000  34.2984788 164.5121679  17.5760505
  34.1951862 162.7439718  17.7491061  33.9220000 163.8350000  19.5830000
  34.2870035 164.7541214  20.0413538  32.8384636 163.8879154  19.4769427
  34.1837130 162.9859257  20.2144103  38.1670000 162.4640000  17.0370000
  38.6960000 163.0160000  16.0700000  38.8730000 161.7870000  17.9650000
  38.3688672 161.3656167  18.7320630  40.3360000 161.7420000  17.9880000
  40.7347995 162.6828138  17.6086221  40.8620000 161.5260000  19.4190000
  40.3705980 160.5899994  19.6845676  41.9420462 161.3792421  19.4111066
  40.5000000 162.6040000  20.4500000  39.4465014 162.8598656  20.3369767
  40.7450000 162.1150000  21.8310000  41.7984533 161.8593557  21.9449341
  40.4816496 162.8950878  22.5452901  40.1349405 161.2312034  22.0176320
  41.2110000 163.9220000  20.1670000  40.9255103 164.2847206  19.1795645
  40.9271608 164.6574779  20.9197342  42.2895586 163.7677742  20.1990115
  40.9750000 160.7310000  17.0370000  42.1920000 160.7720000  16.8350000
  40.1810000 159.8480000  16.4360000  39.2084866 159.7806158  16.7001521
  40.7170000 158.8550000  15.5100000  41.5351960 158.3203467  15.9924939
  39.6480000 157.8370000  15.0860000  38.7939318 157.9588963  15.7521891
  39.3495604 158.0778603  14.0656960  40.1440000 156.3710000  15.1460000
  39.2867260 155.6985283  15.1149546  40.7511739 156.2263014  14.2524093
  40.9870000 156.0290000  16.3680000  42.2420000 156.0170000  16.3150000
  40.3220000 155.7910000  17.5010000  40.8305575 155.5594633  18.3423450
  39.3134245 155.8435845  17.5115670  41.4180000 159.4940000  14.3120000
  40.9340000 160.4950000  13.7500000  42.6160000 158.9660000  14.0250000
  42.9547656 158.2003209  14.5898653  43.4570000 159.4450000  12.9330000
  43.6433480 158.6032091  12.2660954  42.8987142 160.2140880  12.3992211
  44.7810000 160.0200000  13.3810000  45.7540000 159.9980000  12.6230000
  44.8060000 160.5340000  14.6080000  43.9482774 160.5376815  15.1412896
  45.9990000 161.0890000  15.2200000  46.4567918 161.8244551  14.5584626
  45.7522305 161.5605260  16.1712452  46.9760000 159.9780000  15.4650000
  46.5680000 158.8250000  15.6250000  48.2670000 160.2850000  15.4580000
  48.6235362 161.1869666  15.1761534  49.2300000 159.2190000  15.7580000
  48.8845817 158.2384304  15.4304811  50.6290000 159.4870000  15.1340000
  51.1718201 158.5429883  15.0861722  50.5130000 160.0830000  13.7220000
  49.9706608 161.0273262  13.7690861  51.5100838 160.2570230  13.3174752
  49.9758724 159.3879150  13.0766688  51.4750000 160.3620000  16.0210000
  51.6171209 159.8735868  16.9850313  52.4447076 160.5268084  15.5513139
  50.9763414 161.3197966  16.1695465  49.2130000 159.1030000  17.3070000
  48.8670000 160.0840000  18.0000000  49.4850000 157.9370000  17.8570000
  49.7205428 157.0979876  17.3464346  49.4380000 157.8700000  19.3140000
  49.9075183 156.9308859  19.6067738  50.0286865 158.7043422  19.6922351
  48.0460000 157.9360000  19.9180000  47.9150000 158.1040000  21.1230000
  46.9910000 157.8000000  19.0960000  47.1807568 157.7987205  18.1039869
  45.5930000 157.7320000  19.5370000  45.5528015 157.8800065  20.6161558
  44.6790000 158.7780000  18.8360000  44.6619853 158.5697802  17.7662078
  43.2640000 158.7130000  19.3870000  43.2801515 158.9215848  20.4567346
  42.6427050 159.4529241  18.8824154  42.8529186 157.7178094  19.2175690
  45.2400000 160.1920000  19.0200000  46.2214338 160.2069203  18.5460108
  44.5705871 160.8692314  18.4895818  45.3710000 160.6430000  20.4810000
  46.0406757 159.9664694  21.0119809  45.7756718 161.6545373  20.5146481
  44.3898286 160.6287783  20.9555527  45.1860000 156.2730000  19.2590000
  45.2240000 155.8910000  18.0890000  44.8890000 155.4120000  20.2900000
  44.8430000 155.6130000  21.6720000  44.3214854 156.5536228  21.8490635
  45.8707179 155.6958089  22.0256067  44.1210000 154.4270000  22.2710000
  43.0452408 154.6007004  22.2968725  44.4801474 154.2242480  23.2799629
  44.4800000 153.2780000  21.3210000  43.7563949 152.4645292  21.2684654
  45.4621057 152.8746110  21.5676687  44.5380000 154.0050000  19.9870000
  45.3756749 153.5868972  19.4287984  43.2470000 153.8180000  19.1850000
  42.3180000 154.6380000  19.2270000  43.2180000 152.7310000  18.4380000
  44.0530006 152.1646772  18.3916118  42.0900000 152.3560000  17.6180000
  41.5987435 153.2455856  17.2237873  42.5740000 151.4920000  16.4310000
  43.2622495 152.0670890  15.8115773  43.0810831 150.6040281  16.8084554
  41.4900000 151.0130000  15.5310000  40.8800000 151.8600000  14.6160000
  39.9770000 151.1170000  13.9910000  39.3771249 151.5981847  13.2185299
  39.9740000 149.8620000  14.4480000  39.3898912 149.0949896  14.1469821
  40.9320000 149.7850000  15.4310000  41.1038723 148.8430870  15.9519233
  41.0410000 151.6380000  18.4960000  41.3840000 150.8070000  19.3530000
  39.7650000 151.9890000  18.2770000  39.5957404 152.7629415  17.6505297
  38.6250000 151.3930000  18.9630000  38.9011633 150.7677533  19.8120580
  37.6130000 152.4820000  19.4280000  37.3548675 153.0907446  18.5614563
  36.3350000 151.8830000  20.0310000  36.5923006 151.2744545  20.8979310
  35.6659427 152.6869697  20.3377504  35.8378581 151.2615726  19.2861664
  38.2820000 153.4940000  20.3840000  39.0503004 153.9788237  19.7817034
  37.4978857 154.2135586  20.6195837  38.9170000 152.9640000  21.7090000
  39.7015726 152.2446862  21.4741952  39.3440250 153.7975126  22.2666787
  38.1491578 152.4794188  22.3120748  37.9990000 150.3530000  18.0500000
  37.6480000 150.6740000  16.9120000  37.8710000 149.1080000  18.5460000
  38.1975661 148.9360372  19.4861504  37.2890000 147.9940000  17.8000000
  37.5702864 148.0798225  16.7504231  37.7810000 146.6300000  18.3330000
  37.3318915 146.5248348  19.3205936  37.3564956 145.8848801  17.6601758
  39.2650000 146.4250000  18.4340000  39.6740340 147.2728710  18.9834605
  39.4291794 145.5102654  19.0035681  39.9540000 146.3140000  17.0940000
  39.3997060 145.6312381  16.4500331  40.0049039 147.2958217  16.6233257
  41.3150000 145.8020000  17.2590000  41.4796068 144.8285111  17.0461073
  42.3410000 146.5460000  17.6580000  42.1730000 147.8310000  17.9390000
  41.2579070 148.2489385  17.8493776  42.9609082 148.3858727  18.2413518
  43.5460000 146.0010000  17.7920000  43.6787180 145.0204174  17.5896544
  44.3233070 146.5699929  18.0955449  35.7880000 147.9840000  17.8820000
  35.1450000 147.6500000  16.8930000  35.2300000 148.2080000  19.0890000
  35.8342722 148.4722571  19.8539331  33.7940000 148.0930000  19.3470000
  33.2235452 148.5876307  18.5608569  33.4040000 146.5930000  19.3730000
  33.7325002 146.0475929  18.4882865  33.9135728 146.1987968  20.2522266
  31.9450000 146.2870000  19.5490000  30.9800000 146.3230000  18.5840000
  31.2879763 146.6470215  17.5898871  29.7730000 145.9220000  19.1080000
  28.9059002 145.8578925  18.5940665  29.9410000 145.5990000  20.4330000
  29.0170000 145.1400000  21.3810000  27.9770146 145.0206125  21.0772309
  29.4870000 144.8660000  22.6500000  28.7980138 144.4984757  23.4104761
  30.8300000 145.0490000  22.9850000  31.1890990 144.8392045  23.9925382
  31.7480000 145.5030000  22.0470000  32.7782616 145.6527000  22.3698803
  31.3050000 145.7850000  20.7400000  33.4180000 148.7140000  20.6850000
  34.1320000 148.5690000  21.6810000  32.2750000 149.3910000  20.6990000
  31.8539032 149.6260958  19.8115842  31.6580000 149.8970000  21.9070000
  32.1763568 149.4452457  22.7527680  31.6950000 151.4370000  22.0690000
  32.7588015 151.6436371  22.1861611  31.3119010 151.9839058  21.2074727
  30.9550000 151.8770000  23.3160000  31.5530000 151.7900000  24.5700000
  32.6038953 151.5068859  24.6297074  30.8370000 152.0560000  25.7330000
  31.3167333 151.9732426  26.7082482  29.5100000 152.4370000  25.6450000
  28.7990000 152.7230000  26.7750000  29.3165283 152.6278629  27.5779403
  28.8910000 152.5220000  24.4140000  27.8410339 152.8066018  24.3456364
  29.6120000 152.2430000  23.2590000  29.1274519 152.3086885  22.2848346
  30.2400000 149.3590000  21.9380000  29.5170000 149.4260000  20.9320000
  29.8580000 148.8180000  23.0810000  30.4906200 148.7614560  23.8662987
  28.5180000 148.2900000  23.2390000  27.8019471 149.0816032  23.0182474
  28.3802013 147.4694231  22.5348946  28.2750000 147.7870000  24.6260000
  29.0200000 148.1090000  25.5430000  27.2300000 146.9940000  24.7720000
  26.6728440 146.8027580  23.9515714  26.8160000 146.4060000  26.0420000
  27.4891881 146.7408605  26.8311675  25.3720000 146.8220000  26.4140000
  24.7460818 146.5675072  25.5586878  25.0838924 146.2105710  27.2691307
  25.1860000 148.3040000  26.7600000  24.2048043 148.4172396  27.2210126
  25.9578029 148.5899233  27.4746119  25.2680000 149.2280000  25.5640000
  24.6140000 149.0220000  24.5360000  26.0840000 150.2660000  25.6720000
  26.1762855 150.9140860  24.9028646  26.6100743 150.4045072  26.5229777
  26.9050000 144.9010000  25.9490000  26.6830000 144.3320000  24.8770000
  27.2440000 144.2620000  27.0710000  27.5053901 144.8537473  27.8466350
  27.3180000 142.8210000  27.2480000  26.5563092 142.3483013  26.6279337
  28.7000000 142.2550000  26.8500000  28.8362840 142.4729697  25.7907479
  29.4430645 142.8009440  27.4312919  28.8700000 140.7550000  27.0870000
  29.9293898 140.5244114  26.9746480  28.5937427 140.6881143  28.1392868
  28.0450000 139.7580000  26.2810000  27.5610000 140.1170000  25.1810000
  27.9640000 138.5850000  26.7170000  26.9900000 142.5820000  28.7150000
  27.7430000 143.0170000  29.5920000  25.8350000 141.9260000  28.9730000
  25.2701174 141.7019919  28.1662613  25.2890000 141.6410000  30.3060000
  24.3370836 141.1232100  30.1883227  26.2350000 140.7540000  31.1720000
  27.1065810 141.3672172  31.4009334  25.6934996 140.5351579  32.0923181
  26.6900000 139.4420000  30.5230000  27.0875783 139.7029323  29.5422112
  27.4927598 139.0495139  31.1472062  25.6000000 138.3780000  30.3650000
  25.3326945 138.0341210  31.3641967  24.7377713 138.8603335  29.9045485
  26.0290000 137.1870000  29.5160000  25.1998137 136.4795259  29.5104346
  26.1977666 137.5561437  28.5043924  27.2660000 136.5020000  30.0100000
  27.1096830 136.1594907  30.9472044  27.4878388 135.7273511  29.4010611
  28.0345628 137.1572763  30.0148298  24.9210000 142.9860000  30.9730000
  24.2780000 143.8160000  30.3160000  25.3560000 143.2310000  32.2270000
  25.7930898 142.4863685  32.7509999  25.0760000 144.4940000  32.9160000
  24.2887778 145.0330509  32.3889284  24.6100000 144.2340000  34.3690000
  23.8106259 143.4964431  34.2975151  25.4483359 143.8081522  34.9203135
  24.0960000 145.4720000  35.1010000  23.0240000 146.0030000  34.7040000
  24.7790000 145.9260000  36.0540000  26.2760000 145.4750000  32.8190000
  26.4770000 146.3170000  33.6940000  27.0440000 145.3850000  31.7170000
  26.7900799 144.7020192  31.0175994  28.2130000 146.2250000  31.4720000
  28.3040279 146.9688317  32.2635349  29.4900000 145.3790000  31.4460000
  29.2810379 144.6217656  30.6903346  30.3298568 145.9933466  31.1214715
  29.8340000 144.7070000  32.7470000  30.6270000 145.3450000  33.6920000
  30.9754975 146.3570828  33.4862394  30.9780000 144.7170000  34.8830000
  31.5960012 145.2365735  35.6152703  30.5430000 143.4270000  35.1350000
  30.8710000 142.7970000  36.3190000  31.4054835 143.3439087  36.8993602
  29.7700000 142.7650000  34.1940000  29.4247051 141.7488219  34.3844048
  29.4350000 143.4020000  33.0030000  28.8485362 142.8758685  32.2497763
  28.1650000 146.9560000  30.1590000  27.5540000 146.4890000  29.2020000
  28.8750000 148.0870000  30.1180000  29.2247796 148.3783045  31.0196070
  29.2050000 148.8940000  28.9590000  28.5016411 148.6736195  28.1559944
  29.1340000 150.3930000  29.2750000  29.6976465 150.5736056  30.1903051
  29.5853748 150.9512760  28.4548240  27.7250000 150.8840000  29.4730000
  26.8070000 150.5500000  28.7030000  27.5250000 151.7000000  30.5060000
  26.5996582 152.0613474  30.6884018  28.2995536 151.9538683  31.1024213
  30.6420000 148.4560000  28.6740000  31.4300000 148.2630000  29.6130000
  30.9570000 148.2210000  27.3890000  30.2521598 148.4254373  26.6950944
  32.2280000 147.6530000  26.9400000  32.9895255 147.5909297  27.7173837
  31.9890000 146.2190000  26.3580000  31.3805316 146.3069150  25.4579242
  33.3000000 145.5360000  26.0170000  33.9088603 145.4473036  26.9167350
  33.0991454 144.5427591  25.6154649  33.8352801 146.1265108  25.2734451
  31.1500000 145.3400000  27.2810000  30.1755554 145.8027029  27.4374153
  31.0167320 144.3582908  26.8264823  31.6575494 145.2302329  28.2393557
  32.9050000 148.5170000  25.8980000  32.2950000 148.8480000  24.8840000
  34.1910000 148.8070000  26.1100000  34.6039660 148.5888627  27.0055303
  35.0030000 149.5120000  25.1290000  34.4076749 149.6424877  24.2253075
  35.4940000 150.9180000  25.6120000  34.5923654 151.4254658  25.9549762
  36.1491701 150.7281614  26.4621843  36.2320000 151.8150000  24.5800000
  37.0150136 151.2227981  24.1064101  35.2890000 152.3380000  23.5240000
  34.5059182 152.9307282  23.9968160  35.8405853 152.9610945  22.8200059
  34.8384914 151.5004247  22.9914495  36.8880000 153.0060000  25.2440000
  37.6145661 152.6585855  25.9785095  37.3940158 153.6096234  24.4905493
  36.1286316 153.6089330  25.7419262  36.1620000 148.5830000  24.7750000
  36.9960000 148.2690000  25.6320000  36.1650000 148.0910000  23.5200000
  35.3525660 148.2717369  22.9478247  37.2120000 147.2220000  22.9830000
  37.8494412 146.8449714  23.7827608  36.6730000 146.0140000  22.1660000
  36.2039714 146.3861925  21.2551849  37.8080000 145.0570000  21.8000000
  38.2772455 144.6840068  22.7103767  37.4077356 144.2194140  21.2287395
  38.5492640 145.5844069  21.1996074  35.5680000 145.2780000  22.9340000
  34.7427321 145.9627152  23.1294482  35.2093034 144.4378279  22.3394016
  35.9655752 144.9096739  23.8797117  38.1640000 148.1040000  22.1760000
  37.7340000 148.8570000  21.2960000  39.4540000 148.0340000  22.5070000
  39.7269883 147.4143478  23.2564050  40.4800000 148.8480000  21.8780000
  40.1939968 149.0916040  20.8547901  40.6530000 150.1610000  22.6670000
  41.5150717 150.6760481  22.2431402  39.7553868 150.7554878  22.4967800
  40.8640000 149.9690000  24.1910000  39.9680151 149.5038653  24.6020495
  41.7162051 149.3048227  24.3349344  41.1750000 151.5370000  25.0580000
  42.9190000 151.8060000  24.6650000  43.0420771 151.8742535  23.5841242
  43.2575275 152.7329137  25.1279587  43.5103916 150.9732477  25.0456321
  41.8190000 148.1330000  21.7700000  41.9720000 147.0150000  22.2690000
  42.8070000 148.8340000  21.1770000  42.5552300 149.7586462  20.8580319
  44.1970000 148.3970000  21.0140000  44.2373941 147.5556233  20.3222249
  45.0790000 149.5510000  20.4470000  44.7042940 150.3782882  21.0497345
  46.1257301 149.3693912  20.6908738  44.9560000 149.9020000  18.9730000
  44.5550000 149.0090000  18.1750000  45.3910000 151.0420000  18.5870000
  44.7940000 148.0350000  22.3570000  44.6450000 148.7980000  23.3080000
  45.4930000 146.8980000  22.4280000  45.5195235 146.2802826  21.6293630
  46.2570000 146.5280000  23.6140000  45.6808584 146.7754322  24.5055926
  46.5680000 145.0400000  23.6340000  45.6130905 144.5229133  23.5398274
  47.1766990 144.8413608  22.7518844  47.2840000 144.5480000  24.8560000
  48.1334147 145.2011853  25.0558608  46.3600000 144.5480000  26.0460000
  45.5105161 143.8946263  25.8470559  46.8969487 144.1879479  26.9235816
  46.0030894 145.5614266  26.2295259  47.7670000 143.1780000  24.6380000
  48.4530009 143.1645018  23.7910525  48.2858092 142.8287346  25.5307217
  46.9211070 142.5227173  24.4302294  47.5760000 147.3210000  23.5110000
  48.2870000 147.2320000  22.4980000  47.8590000 148.1440000  24.5210000
  47.2014238 148.2407783  25.2814781  49.0760000 148.9510000  24.5510000
  49.5865487 148.8883235  23.5900053  48.7300000 150.4350000  24.8320000
  48.2932551 150.3875080  25.8295458  49.6605833 151.0012816  24.8699468
  47.7510000 151.1260000  23.8790000  46.8647436 150.5007247  23.7709205
  47.3560000 152.4570000  24.4030000  48.2417357 153.0830390  24.5109177
  46.6602405 152.9292316  23.7094462  46.8754771 152.3377623  25.3740719
  48.3180000 151.2550000  22.4640000  48.5343534 150.2632315  22.0669032
  47.5886741 151.7510611  21.8236030  49.2355357 151.8427503  22.4918706
  50.0010000 148.3910000  25.6220000  49.5650000 147.6010000  26.4670000
  51.2570000 148.8090000  25.5830000  51.5026451 149.4488774  24.8411679
  52.2930000 148.4140000  26.5240000  52.2354320 147.3329027  26.6505456
  53.2574233 148.6776277  26.0898485  52.1660000 149.0730000  27.8730000
  51.0690000 149.4910000  28.2650000  53.2810000 149.1220000  28.6410000
  54.3740000 148.2000000  28.5950000  55.2207924 148.6907836  28.1152351
  54.0729110 147.3354230  28.0034334  54.6510000 147.8430000  30.0380000
  55.6860054 147.5264101  30.1669716  53.9841554 147.0494578  30.3752098
  54.3680000 149.1510000  30.7870000  55.1906454 149.8658715  30.7693282
  54.0680288 148.9684991  31.8188965  53.1920000 149.6970000  29.9940000
  52.2841653 149.3104691  30.4571719  53.1550000 151.2180000  29.9990000
  53.5840000 151.8620000  29.0340000  52.6450000 151.7880000  31.1000000
  52.2545692 151.2159001  31.8350951  52.6140000 153.2260000  31.2600000
  52.3258690 153.6979790  30.3206835  51.6060000 153.6150000  32.3280000
  51.3625397 154.6708774  32.2098929  50.7047501 153.0173652  32.1913208
  52.1250000 153.3940000  33.6220000  51.4702769 153.6471003  34.2768875
  54.0190000 153.7330000  31.6520000  54.8890000 152.9320000  32.0230000
  54.1980000 155.0680000  31.6220000  53.4494708 155.6331479  31.2472852
  55.4380000 155.7290000  32.0020000  56.2694279 155.2507392  31.4842226
  55.4280000 157.2190000  31.6410000  54.4871213 157.5543975  32.0772970
  56.2579409 157.7203125  32.1389797  55.4480000 157.5580000  30.1550000
  54.5574906 157.1413532  29.6843628  55.4700000 159.0690000  29.9520000
  56.3605236 159.4863342  30.4219986  55.4840954 159.2926412  28.8852823
  54.5811302 159.5097435  30.4033935  56.6140000 156.8760000  29.4330000
  56.5234529 155.7946907  29.5362994  56.5934962 157.1424994  28.3762792
  57.5560139 157.2047745  29.8718805  55.7380000 155.5310000  33.4680000
  56.9030000 155.4310000  33.8140000  54.6920000 155.3810000  34.3160000
  53.7641979 155.5262923  33.9442841  54.8290000 155.0970000  35.7330000
  55.5868841 155.7486409  36.1678276  53.5110000 155.3340000  36.4560000
  53.1959687 156.3497360  36.2169708  52.7918753 154.6250618  36.0456753
  53.5820000 155.1660000  37.9800000  52.5583162 155.2274548  38.3493177
  53.9410971 154.1412510  38.0750674  54.4730000 156.0940000  38.7970000
  54.8610000 157.1750000  38.2990000  54.7310000 155.7570000  39.9740000
  55.3300000 153.6530000  35.9270000  56.1540000 153.4110000  36.8090000
  54.8670000 152.7070000  35.0900000  54.1728693 152.9704464  34.4052534
  55.3040000 151.3050000  35.1350000  55.1988483 150.9298512  36.1529910
  54.4680000 150.4150000  34.1930000  54.5834219 150.8904070  33.2189542
  54.9177803 149.4224448  34.1678621  52.9930000 150.2930000  34.5240000
  52.6270000 150.4910000  35.7140000  52.2050000 149.9410000  33.6080000
  56.7670000 151.2250000  34.7330000  57.5470000 150.5330000  35.3870000
  57.1400000 151.9670000  33.6790000  56.4217851 152.4449163  33.1537736
  58.5050000 151.9990000  33.1700000  58.9112851 150.9875613  33.1651661
  58.5600000 152.5550000  31.7450000  58.0717047 153.5267169  31.8187100
  59.5998450 152.6930250  31.4487375  57.8440000 151.7050000  30.7030000
  56.9304935 151.3088612  31.1464871  57.5020000 152.5050000  29.4930000
  58.4151047 152.9011129  29.0486653  56.9921586 151.8695774  28.7688449
  56.8482474 153.3302513  29.7752556  58.6570000 150.5130000  30.3190000
  58.8395136 149.8978726  31.2001394  58.1167048 149.9286821  29.5741813
  59.6091441 150.8410065  29.9019480  59.4400000 152.7310000  34.1200000
  60.5950000 152.3210000  34.2560000  58.9190000 153.7760000  34.8150000
  57.9908519 154.0848067  34.5634469  59.6640000 154.5510000  35.8240000
  60.6153588 154.8728246  35.4003910  58.8760000 155.8010000  36.2740000
  58.4321964 156.3382354  35.4358379  58.0850091 155.3853911  36.8982617
  59.5990000 156.8360000  37.1200000  60.6630000 157.5660000  36.5990000
  61.0146646 157.3511904  35.5898970  61.2790000 158.5650000  37.3550000
  62.1426030 159.0971738  36.9561497  60.7930000 158.8790000  38.6100000
  61.2641456 159.6702429  39.1931435  59.7170000 158.1950000  39.1230000
  59.3220177 158.4593344  40.1039263  59.1330000 157.1680000  38.3930000
  58.2976862 156.6075790  38.8128560  60.0300000 153.6150000  36.9810000
  61.2050000 153.5460000  37.3370000  59.0500000 152.8080000  37.4630000
  58.1200947 152.9885706  37.1126149  59.2180000 151.7710000  38.4990000
  59.6339912 152.2194796  39.4011733  57.8760000 151.1260000  38.8480000
  57.4014656 150.9042470  37.8921015  58.0255528 150.1995152  39.4024004
  56.9550000 152.0270000  39.6490000  57.3880000 152.8730000  40.4620000
  55.6530000 151.8170000  39.4860000  54.9861746 152.3832532  39.9907782
  55.3362291 151.0921027  38.8580820  60.2460000 150.7040000  38.0780000
  61.1700000 150.4240000  38.8320000  60.1180000 150.1750000  36.8570000
  59.2915162 150.4609445  36.3517677  61.0220000 149.2140000  36.2220000
  61.0286949 148.2745226  36.7746632  60.5360000 148.9360000  34.7810000
  59.5221735 148.5362434  34.8022057  60.5462753 149.8693524  34.2181076
  61.3700000 147.9540000  34.0020000  61.2490000 146.5870000  34.2210000
  60.5149677 146.2232741  34.9400271  62.0580000 145.6810000  33.5290000
  61.9761502 144.6133911  33.7329915  62.9600000 146.1370000  32.5880000
  63.5920860 145.4310027  32.0493582  63.0600000 147.4840000  32.3310000
  63.7572424 147.8431526  31.5740571  62.2690000 148.3920000  33.0390000
  62.3530069 149.4600794  32.8383783  62.4660000 149.7430000  36.2120000
  63.4010000 148.9790000  36.4490000  62.6330000 151.0610000  35.9710000
  61.7964339 151.5573205  35.6991133  63.9100000 151.7850000  35.9490000
  64.7186058 151.1001789  35.6935086  63.8720000 152.8970000  34.9170000
  63.0474450 153.5817790  35.1152068  64.8103992 153.4514876  34.9098997
  63.6320000 152.3000000  33.2350000  63.6533356 153.4980676  32.6578716
  64.3430000 152.3080000  37.3170000  65.2050000 153.1950000  37.3940000
  63.7650000 151.7430000  38.3900000  63.0072932 151.1035601  38.1973956
  64.0420000 152.0900000  39.7830000  63.3036018 151.6118574  40.4266202
  65.4370000 151.6270000  40.2110000  66.1782188 152.2535504  39.7148865
  65.5260714 151.7455057  41.2908716  65.6580000 150.2700000  39.8650000
  66.5381186 150.0077268  40.1446495  63.8080000 153.5800000  40.0920000
  64.6430000 154.1850000  40.7750000  62.6480000 154.1550000  39.6150000
  62.1073463 153.5880541  38.9775322  62.2000000 155.5340000  39.8750000
  61.3377774 155.7969974  39.2622164  61.7870000 155.6000000  41.3630000
  61.0537879 154.7994998  41.4614817  62.6980095 155.3249855  41.8945343
  61.2160000 156.8930000  41.9620000  62.0305491 157.4969869  42.3617630
  60.6966129 157.4532717  41.1845460  60.2300000 156.5500000  43.0920000
  60.7029554 155.8905892  43.8197290  59.8946000 157.4594064  43.5905842
  59.0660000 155.8680000  42.5290000  59.0815238 154.8586738  42.4955498
  58.0010000 156.5030000  42.0460000  57.8940000 157.8260000  42.1630000
  58.6257367 158.3502018  42.6211200  57.0816485 158.2985540  41.7930305
  57.0280000 155.8230000  41.4590000  57.0956148 154.8185129  41.3781668
  56.2227862 156.3120001  41.0948457  63.3090000 156.5630000  39.4710000
  63.5640000 157.5540000  40.1480000  63.9680000 156.2960000  38.3560000
  63.7493521 155.4333131  37.8784398  65.0590000 157.1080000  37.8460000
  64.8843956 158.1614361  38.0648262  66.3910000 156.6690000  38.5350000
  66.4523313 157.2738855  39.4396830  66.2363146 155.6247613  38.8065473
  67.7110000 156.8040000  37.7330000  68.4761652 156.2769055  38.3029075
  67.5508239 156.2944298  36.7828506  68.1720000 158.2470000  37.4690000
  67.3479206 158.7968126  37.0143592  68.4335025 158.7074783  38.4217201
  69.3370000 158.3200000  36.5750000  69.8182839 157.4540919  36.3783572
  69.8000000 159.4430000  36.0280000  69.1920000 160.6030000  36.2560000
  68.3739530 160.6331866  36.8475977  69.5509107 161.4487936  35.8365766
  70.8640000 159.4120000  35.2370000  71.3244021 158.5328734  35.0492063
  71.2090270 160.2676595  34.8260231  65.1020000 157.0320000  36.3040000
  65.1600000 155.9300000  35.7420000  64.9980000 158.2150000  35.6400000
  64.7880454 159.0253738  36.2050776  65.1280000 158.3940000  34.1820000
  65.3852234 157.4254930  33.7531299  63.8610000 158.9250000  33.4770000
  63.5224486 159.7639740  34.0849514  64.1344851 159.2831761  32.4845204
  62.6710000 158.0160000  33.2950000  62.8130000 156.6310000  33.3450000
  63.7932691 156.1987145  33.5457524  61.7100000 155.7970000  33.1400000
  61.8303601 154.7146437  33.1860313  60.4670000 156.3440000  32.8790000
  59.6100476 155.6910396  32.7135456  60.3110000 157.7100000  32.8280000
  59.3281036 158.1394867  32.6342064  61.4090000 158.5440000  33.0240000
  61.2888258 159.6258261  32.9664642  66.2760000 159.3600000  33.8760000
  66.4250000 160.3940000  34.5610000  67.0570000 159.0380000  32.8070000
  66.8967457 158.1516332  32.3500846  68.1720000 159.8590000  32.3510000
  68.7132783 160.3465778  33.1617928  69.1810000 159.0730000  31.4870000
  69.9405467 159.7731830  31.1392459  69.8340000 157.9640000  32.2340000
  69.0750724 157.2631173  32.5816951  70.5332600 157.4456163  31.5779414
  70.3726701 158.3697674  33.0903223  68.5920000 158.5990000  30.2640000
  69.2500679 158.1172136  29.7576120  67.6150000 161.0460000  31.6270000
  66.4710000 160.9990000  31.1640000  68.4170000 162.1170000  31.5200000
  69.2898946 162.1421887  32.0274643  68.0030000 163.3090000  30.8040000
  67.0672317 163.6843583  31.2181776  69.0630000 164.3970000  30.9310000
  69.2967919 164.4952145  31.9910917  69.9461864 164.0487909  30.3954328
  68.6350000 165.7510000  30.3780000  69.4085482 166.4651624  30.6603050
  68.6094409 165.6539783  29.2926265  67.0370000 166.3490000  30.9570000
  67.4180000 166.5460000  32.7620000  68.2330429 167.2590199  32.8861234
  66.5332079 166.9120918  33.2827883  67.7119127 165.5827914  33.1790679
  67.6380000 162.9750000  29.3400000  66.6590000 163.5300000  28.8250000
  68.3340000 161.9750000  28.7220000  69.1417555 161.6083666  29.2049185
  68.0560000 161.4910000  27.3610000  68.0461696 162.3377038  26.6746363
  69.1240000 160.4810000  26.8840000  70.1020542 160.9510840  26.9866166
  69.0726163 159.6053788  27.5311068  68.9150000 160.0550000  25.4360000
  67.8612864 159.8026685  25.3171840  69.1568079 160.9098595  24.8044573
  69.7480000 158.8960000  25.0380000  70.7992335 159.1840532  25.0436942
  69.5923323 158.0773143  25.7405815  69.3540000 158.4460000  23.6410000
  68.4578731 157.8305689  23.7203830  69.1338895 159.3323390  23.0459758
  70.4370000 157.6630000  22.9830000  70.6408133 156.8414289  23.5339816
  70.1371198 157.3834696  22.0599428  71.2673310 158.2332344  22.9089584
  66.6300000 160.9070000  27.2280000  65.9400000 161.2260000  26.2610000
  66.1950000 160.0630000  28.1880000  66.8745549 159.7129762  28.8481422
  64.8450000 159.4900000  28.2100000  64.6345091 159.1220007  27.2058241
  64.7350000 158.3130000  29.1990000  65.1687317 158.6330687  30.1463822
  63.2890000 157.8590000  29.4270000  62.8547217 157.5383235  28.4800741
  63.2754506 157.0280225  30.1322601  62.7069882 158.6873176  29.8310454
  65.4330000 157.2100000  28.6260000  65.3836521 156.4569643  29.2193822
  63.8030000 160.5990000  28.4170000  62.9030000 160.7430000  27.6060000
  63.9670000 161.4160000  29.4330000  64.6836637 161.1965380  30.1099999
  63.0530000 162.5310000  29.7220000  62.0183333 162.2054581  29.8296404
  63.4720000 163.3080000  31.0200000  64.5156423 163.6044285  30.9149283
  62.6080000 164.5540000  31.2560000  61.5642063 164.2583039  31.3616383
  62.9362686 165.0574999  32.1653009  62.7089284 165.2325236  30.4089340
  63.4340000 162.3920000  32.2270000  64.1234957 161.5615168  32.0753574
  63.7276696 162.9496197  33.1163357  62.4234673 162.0051909  32.3585418
  62.8800000 163.4390000  28.4890000  61.7350000 163.7920000  28.1400000
  63.9960000 163.7810000  27.8130000  64.9092487 163.5606245  28.1838244
  63.9160000 164.6360000  26.6180000  63.2072087 165.4430250  26.8035388
  65.2690000 165.2470000  26.2640000  65.8645955 164.3342805  26.2815623
  65.3337432 165.7035288  25.2763311  65.8110000 166.2390000  27.3290000
  65.6915126 165.7817885  28.3112328  67.2870000 166.5800000  27.1010000
  67.4072183 167.0377053  26.1190874  67.6224464 167.2764474  27.8694644
  67.8830273 165.6688185  27.1519910  64.8940000 167.4370000  27.5070000
  63.9093572 167.0970148  27.8279174  65.3105458 168.1052424  28.2606862
  64.8032015 167.9695453  26.5602951  63.2650000 163.9590000  25.4060000
  62.4770000 164.6260000  24.7300000  63.5440000 162.6500000  25.1430000
  64.2320832 162.1735985  25.7084047  62.8940000 161.8980000  24.0480000
  63.0175730 162.4503058  23.1164490  63.4980000 160.4940000  23.8710000
  63.6219652 160.0700402  24.8674888  62.7738734 159.9012830  23.3120481
  64.8270000 160.4790000  23.1480000  64.7200169 161.1264279  22.2776595
  65.5620340 160.9064431  23.8299966  65.3930000 158.8490000  22.6100000
  65.5740000 158.0100000  24.1780000  64.6128655 157.9873454  24.6916207
  65.9182675 156.9899847  24.0072680  66.3013954 158.5403419  24.7926012
  61.3950000 161.7430000  24.3150000  60.5940000 161.7490000  23.3870000
  61.0260000 161.5850000  25.5810000  61.7524188 161.4850535  26.2755688
  59.6460000 161.4430000  26.0040000  59.1374700 160.7562842  25.3273038
  59.5290000 160.8910000  27.4520000  60.2939342 161.4617723  27.9784922
  58.5472583 161.1453400  27.8514928  59.7870000 159.3890000  27.6460000
  60.7731789 159.1555114  27.2447082  59.7300000 158.9910000  29.1190000
  58.7438999 159.2237755  29.5208967  59.9174780 157.9214935  29.2144388
  60.4878738 159.5432074  29.6746931  58.8350000 158.5560000  26.8320000
  58.9567181 158.7927296  25.7750027  59.0465812 157.4990426  26.9937890
  57.8108905 158.7717694  27.1365361  58.9170000 162.7450000  25.8500000
  57.7970000 162.7500000  25.3190000  59.5520000 163.8550000  26.2940000
  60.4398920 163.7051980  26.7515004  59.0080000 165.2160000  26.2610000
  58.1409677 165.2068465  26.9215076  60.0200000 166.2190000  26.8000000
  60.8901307 166.2461700  26.1440774  59.5651702 167.2087401  26.8405528
  60.3298323 165.9207733  27.8015808  58.5150000 165.6250000  24.8810000
  57.4540000 166.2340000  24.7700000  59.2410000 165.2260000  23.8420000
  60.0798158 164.7071237  24.0593816  58.9550000 165.5230000  22.4440000
  58.8810181 166.5992288  22.2879314  60.1010000 164.9780000  21.5750000
  61.0774328 165.2136613  21.9982517  59.9385590 163.9009183  21.6150980
  60.0500000 165.4440000  20.1300000  60.2140000 166.6770000  19.8880000
  59.9600000 164.5720000  19.2320000  57.6250000 164.9410000  22.0160000
  56.7880000 165.6550000  21.4730000  57.4270000 163.6310000  22.3000000
  58.2294444 163.1255818  22.6474691  56.1980000 162.8830000  22.0340000
  55.8466021 163.0975891  21.0247576  56.4470000 161.3890000  22.1540000
  56.9669605 161.2140038  23.0958687  55.4772188 160.8919194  22.1771381
  57.2750000 160.8310000  21.0070000  56.9030749 161.2568757  20.0751189
  58.3251785 161.0945081  21.1326606  57.1610000 159.3310000  20.9300000
  56.0810000 158.7810000  20.6610000  58.2750000 158.6410000  21.1920000
  58.2604511 157.6317446  21.1560382  59.1264276 159.1319013  21.4247841
  55.0110000 163.3170000  22.9030000  53.9220000 163.3760000  22.3860000
  55.2190000 163.6420000  24.1810000  56.1463445 163.4642610  24.5395251
  54.1920000 164.1140000  25.1140000  53.3257234 163.4536813  25.0734633
  54.7330000 164.1260000  26.5510000  55.6765683 164.6714171  26.5337281
  54.0110539 164.6691986  27.1607779  54.9600000 162.7300000  27.1490000
  53.9970324 162.2205594  27.1134414  55.6630689 162.2234568  26.4877813
  55.6000000 162.6820000  28.8530000  57.1080000 162.9300000  28.5550000
  57.2269496 163.8919250  28.0563514  57.6677665 162.9344904  29.4902764
  57.4864562 162.1374408  27.9094598  53.5870000 165.4850000  24.7380000
  52.3910000 165.6890000  24.9370000  54.3910000 166.4150000  24.1880000
  55.3800505 166.2126273  24.1576076  53.9320000 167.7370000  23.7160000
  53.2447579 168.1921216  24.4292053  55.1170000 168.7320000  23.4210000
  55.8450607 168.2223969  22.7898640  54.6270000 170.0020000  22.7130000
  53.8992012 170.5124279  23.3437717  55.4727236 170.6638139  22.5263062
  54.1604855 169.7332425  21.7652485  55.8870000 169.0840000  24.7170000
  55.2620599 169.8089130  25.2385859  55.9265219 168.1588297  25.2919760
  57.2600000 169.6320000  24.5660000  57.2212288 170.5574884  23.9914847
  57.6816180 169.8336389  25.5507229  57.8856904 168.9074054  24.0448724
  53.0540000 167.4850000  22.4880000  51.9260000 167.9910000  22.4410000
  53.5520000 166.6690000  21.5320000  54.5134938 166.3726918  21.6204899
  52.8230000 166.3070000  20.3140000  52.5141379 167.2160582  19.7979414
  53.6800000 165.4800000  19.3700000  54.0585347 164.5981697  19.8869004
  53.0904289 165.1697055  18.5073163  54.7710000 166.2780000  18.9350000
  55.3221119 165.7679038  18.3369387  51.4930000 165.6250000  20.5890000
  50.4980000 165.9930000  19.9540000  51.4590000 164.6550000  21.5450000
  52.3393010 164.3674960  21.9481264  50.2440000 163.9400000  21.9470000
  49.7851214 163.4928753  21.0651785  50.5440000 162.8250000  22.9640000
  51.0880438 163.3153210  23.7712799  49.5685869 162.5019141  23.3277098
  51.3490000 161.5890000  22.4730000  52.3531542 161.9576969  22.2636252
  51.3830065 160.9056108  23.3214838  50.8180000 160.8610000  21.2620000
  51.0407481 159.7959105  21.3257698  49.7409518 161.0015963  21.1708996
  51.4580000 161.3990000  20.0790000  50.9701200 162.1444599  19.6032248
  52.6130000 160.9800000  19.5810000  53.2360000 159.9360000  20.1190000
  52.8268310 159.4605705  20.9106107  54.1155969 159.6231062  19.7336348
  53.1620000 161.6020000  18.5540000  52.6992863 162.4015068  18.1456068
  54.0421650 161.2754540  18.1814736  49.1730000 164.9110000  22.4930000
  48.0370000 164.8600000  22.0260000  49.5350000 165.8210000  23.4340000
  50.4605666 165.7154389  23.8242340  48.6390000 166.8700000  24.0090000
  47.6855316 166.4417006  24.3181225  49.2980000 167.6060000  25.2230000
  50.2289421 168.0603358  24.8838450  48.3800000 168.6910000  25.7980000
  47.4489740 168.2373283  26.1378135  48.8743370 169.1778905  26.6386363
  48.1631056 169.4302601  25.0269290  49.7010000 166.6160000  26.3340000
  48.7700798 166.2874086  26.7960779  50.1726722 165.7730491  25.8289666
  50.6500000 167.1600000  27.4210000  50.1787909 168.0027389  27.9268192
  50.8615564 166.3739409  28.1458822  51.5813829 167.4883817  26.9597071
  48.1990000 167.8450000  22.8850000  47.0080000 168.1420000  22.7360000
  49.1670000 168.2810000  22.0520000  50.1198804 168.0090986  22.2474172
  48.9210000 169.1650000  20.9300000  48.5921705 170.1412614  21.2862077
  50.1920000 169.3450000  20.1320000  50.9910332 169.6763173  20.7952299
  50.4697066 168.3947956  19.6758305  49.9760000 170.3710000  19.0580000
  49.1460986 169.9681895  18.4773898  49.6643061 171.2961567  19.5428002
  51.1340000 170.6500000  18.1470000  52.2410000 170.1200000  18.4000000
  50.9340000 171.4470000  17.2010000  47.8000000 168.6710000  20.0110000
  46.9180000 169.4610000  19.6240000  47.8260000 167.3620000  19.6700000
  48.6134765 166.7916254  19.9432270  46.8210000 166.7770000  18.7960000
  46.7352802 167.3748933  17.8886550  47.1940000 165.3570000  18.4080000
  48.0692870 165.4950730  17.7732498  47.4565172 164.7234197  19.2552076
  46.0950000 164.7010000  17.6120000  45.8840000 165.0320000  16.2770000
  46.5685945 165.7286652  15.7931741  44.8190000 164.4890000  15.5590000
  44.6787438 164.7409056  14.5078227  43.9280000 163.6300000  16.1930000
  42.8730000 163.0640000  15.5290000  42.8272705 163.3245556  14.6061678
  44.1010000 163.3190000  17.5290000  43.3970215 162.6588689  18.0356968
  45.1800000 163.8530000  18.2270000  45.3226015 163.6090876  19.2797448
  45.4190000 166.8680000  19.3950000  44.4850000 167.2890000  18.7060000
  45.2770000 166.4770000  20.6780000  46.0725217 166.0237743  21.1044165
  44.0350000 166.5540000  21.4390000  43.2440753 165.9841436  20.9513515
  44.2180000 166.0110000  22.8930000  45.0193747 166.5717518  23.3740980
  42.9400000 166.1570000  23.7040000  42.1382264 165.5961002  23.2237382
  43.1013285 165.7699766  24.7101245  42.6630598 167.2097282  23.7602944
  44.6410000 164.5510000  22.8790000  45.5871073 164.4513832  22.3469666
  44.7615586 164.1972801  23.9029372  43.8780801 163.9559458  22.3770392
  43.5090000 168.0050000  21.3880000  42.3340000 168.2160000  21.1070000
  44.4100000 168.9940000  21.5710000  45.3331046 168.7156381  21.8718186
  44.1120000 170.4240000  21.4790000  43.2484133 170.6607846  22.1004904
  45.3050000 171.2560000  21.9610000  46.2059840 170.9323024  21.4398984
  45.1176019 172.3073678  21.7428079  45.6060000 171.1680000  23.4420000
  46.7040000 171.8120000  23.9970000  46.6710000 171.5460000  25.2920000
  47.4515600 171.9818956  25.9155544  45.6470000 170.7630000  25.6010000
  45.3986029 170.4002148  26.5102776  44.9520000 170.5170000  24.4330000
  44.0572936 169.8947119  24.4519543  43.6530000 170.8600000  20.0550000
  42.7510000 171.6930000  19.9300000  44.2150000 170.2670000  18.9870000
  45.0047814 169.6450393  19.0845171  43.7720000 170.6260000  17.6280000
  43.6044179 171.6934367  17.4844926  44.7380000 170.1310000  16.5430000
  44.3234676 170.4160699  15.5760469  46.1430000 170.7090000  16.6840000
  46.5583937 170.4239416  17.6505865  46.7777992 170.3206999  15.8875377
  46.0979537 171.7958652  16.6147502  44.7380000 168.6970000  16.5000000
  45.3446234 168.3972946  15.8189823  42.3590000 170.1590000  17.3680000
  41.6620000 170.7420000  16.5300000  41.9400000 169.0950000  18.0880000
  42.6354656 168.6146038  18.6408530  40.6000000 168.5190000  18.0080000
  40.1651158 168.7507621  17.0357545  40.6340000 166.9790000  18.1810000
  41.1259333 166.7747453  19.1319894  39.5992867 166.6394269  18.2274598
  41.3620000 166.2390000  17.0630000  42.3462957 166.6849874  16.9203186
  41.4753224 165.1913674  17.3417939  40.5850000 166.3340000  15.7940000
  39.7510459 165.6362670  15.8700801  40.2012328 167.3517233  15.7228560
  41.3870000 166.0190000  14.5760000  42.2809083 166.6425388  14.5608998
  41.6776038 164.9686542  14.5965514  40.5770000 166.2850000  13.3580000
  40.3079799 167.2583187  13.3385446  41.1239351 166.0703741  12.5364784
  39.7488495 165.7070023  13.3715867  39.6200000 169.2030000  18.9910000
  38.5430000 168.6650000  19.2370000  39.9860000 170.4000000  19.5360000
  40.9458046 170.6650907  19.3668805  39.1700000 171.2540000  20.4190000
  39.6818620 172.2001105  20.5949867  37.8070000 171.5460000  19.7720000
  37.1249141 170.6971784  19.8205803  37.4006301 172.3718646  20.3558761
  37.9280000 171.9870000  18.3300000  38.6860000 172.8990000  17.9870000
  37.2620000 171.2750000  17.4390000  37.3071590 171.5249554  16.4614609
  36.7106219 170.4838594  17.7392992  38.9740000 170.7410000  21.8410000
  38.1180000 171.2550000  22.5450000  39.7980000 169.7980000  22.2940000
  40.5025171 169.4146417  21.6801666  39.6910000 169.2620000  23.6370000
  38.8747437 169.7516618  24.1680897  39.4080000 167.7490000  23.5870000
  40.0458197 167.2814797  22.8368599  39.6043777 167.3003527  24.5607820
  37.9830000 167.3930000  23.2260000  37.5450000 167.4570000  21.9070000
  38.2469649 167.7459848  21.1248025  36.2230000 167.1560000  21.5810000
  35.8770328 167.2631948  20.5529355  35.3520000 166.7220000  22.5610000
  34.3366732 166.4297206  22.2930743  35.7630000 166.6580000  23.8730000
  35.0670395 166.3432626  24.6506114  37.0770000 166.9980000  24.2070000
  37.4035556 166.9557596  25.2460751  40.9280000 169.5040000  24.4590000
  42.0290000 169.5380000  23.9220000  40.7470000 169.6210000  25.7810000
  39.7890788 169.7641597  26.0673420  41.7950000 169.6530000  26.8120000
  42.7899001 169.6126997  26.3685488  41.7030000 170.8820000  27.7740000
  42.3315687 170.7028409  28.6462980  42.1820000 172.1590000  27.0480000
  41.5535745 172.3390830  26.1757889  42.1143926 173.0099407  27.7258126
  43.2164327 172.0301425  26.7294975  40.2680000 171.0310000  28.3630000
  39.6552033 171.3214343  27.5096367  39.9991058 170.0221793  28.6761713
  40.0400000 171.9520000  29.4560000  40.3082494 172.9611726  29.1434095
  38.9876504 171.9274929  29.7389468  40.6521541 171.6619186  30.3099438
  41.6520000 168.2790000  27.5220000  40.5310000 167.8130000  27.6540000
  42.7530000 167.6110000  27.9030000  43.6431520 168.0246838  27.6651040
  42.7470000 166.2710000  28.5180000  41.9824456 165.6469011  28.0553378
  44.1260000 165.5990000  28.3110000  44.3657569 165.6027431  27.2477024
  44.9062821 166.1253723  28.8607200  44.1770000 164.1790000  28.7540000
  44.4040000 163.8480000  30.0820000  44.3810000 162.5230000  30.1260000
  44.5498425 162.0501803  31.0934878  44.1450000 161.9960000  28.9240000
  44.0768707 161.0181748  28.6804509  44.0050000 163.0400000  28.0410000
  43.7954840 162.8405776  26.9900790  42.3150000 166.2870000  30.0020000
  41.4800000 165.4870000  30.4190000  42.9070000 167.1790000  30.7860000
  43.6910278 167.6414488  30.3483463  42.6430000 167.4490000  32.2070000
  43.2657862 168.2828004  32.5310577  41.1810000 167.8040000  32.4630000
  40.5681659 166.9741706  32.1109819  41.0483436 167.9223396  33.5384060
  40.7620000 169.0670000  31.7650000  41.5891783 169.7767763  31.7747158
  40.4926608 168.8378321  30.7339614  39.5900000 169.6620000  32.4630000
  39.8684897 169.9443800  33.4782852  39.2462847 170.5439265  31.9224772
  38.4980000 168.7000000  32.5290000  38.6746339 167.7745245  32.1651389
  37.3000000 168.9660000  33.0230000  37.0250000 170.1750000  33.5040000
  37.7347959 170.8934302  33.4918439  36.1076207 170.3691865  33.8792420
  36.3680000 168.0270000  33.0510000  36.5735659 167.1049391  32.6937235
  35.4553966 168.2367128  33.4295159  43.0980000 166.3550000  33.1700000
  42.7860000 166.4280000  34.3540000  43.8680000 165.3890000  32.7010000
  44.0347271 165.3062952  31.7082959  44.3800000 164.3580000  33.5680000
  44.5940368 164.7778571  34.5508568  43.3470000 163.2160000  33.7320000
  42.3554811 163.6656925  33.7845937  43.4422707 162.6554014  32.8020792
  43.5400000 162.2780000  34.9100000  44.0730000 162.7340000  35.9660000
  43.1100000 161.1090000  34.8040000  45.7410000 163.8960000  33.0340000
  45.9690000 162.7060000  32.7710000  46.6510000 164.8740000  32.8670000
  46.3503993 165.8285139  33.0035350  48.0240000 164.6360000  32.4030000
  48.1196450 163.8173246  31.6897527  48.6430000 165.9350000  31.7910000
  48.5969722 166.7259921  32.5395408  50.1080000 165.7150000  31.3660000
  50.1547853 164.9244122  30.6170790  50.5071825 166.6377363  30.9449159
  50.6996257 165.4270340  32.2349959  47.7740000 166.5190000  30.6360000
  46.7798429 166.6802295  31.0528423  48.2180970 167.4795744  30.3748983
  47.6670000 165.6590000  29.3950000  47.2225318 164.6983644  29.6552442
  47.0405216 166.1607468  28.6575217  48.6607869 165.4977074  28.9773014
  48.8320000 164.0730000  33.5990000  49.0280000 164.7640000  34.6040000
  49.2240000 162.7880000  33.5070000  48.9239382 162.2648222  32.6968474
  49.9810000 162.0850000  34.5470000  50.7194870 162.7621216  34.9762347
  49.0450000 161.5790000  35.6890000  49.6911764 161.0860672  36.4153419
  48.6063128 162.4695142  36.1391534  47.9300000 160.6200000  35.2650000
  47.3751467 161.0592200  34.4359496  48.3711249 159.6755340  34.9464173
  46.9880000 160.3710000  36.4280000  47.5921089 160.0755395  37.2858196
  46.4791667 161.3093782  36.6485323  45.9650000 159.3000000  36.1410000
  45.5487205 159.4779975  35.1494715  46.4660714 158.3321107  36.1557256
  44.8690000 159.3060000  37.1470000  44.4042894 160.2026347  37.1332150
  44.2042145 158.5787840  36.9249253  45.2544696 159.1406553  38.0657891
  50.7710000 160.9450000  33.9140000  50.3440000 160.4830000  32.8610000
  51.9150000 160.4790000  34.4910000  52.3690000 160.6770000  35.7880000
  51.4943434 160.7809400  36.4300846  52.9392923 161.6058453  35.7985882
  53.2150000 159.4770000  36.1490000  52.6011959 158.6854912  36.5789506
  53.9974955 159.7536480  36.8555891  53.8170000 159.0510000  34.8050000
  54.0924495 158.0013806  34.7024053  54.6816125 159.6764019  34.5827002
  52.6790000 159.3820000  33.8530000  53.1246117 159.8096614  32.9548718
  51.8780000 158.1180000  33.4770000  52.1800000 157.4720000  32.4620000
  50.8400000 157.7970000  34.2750000  50.7386065 158.3537863  35.1115451
  49.9360000 156.6540000  34.0850000  50.5189216 155.7458873  33.9312700
  49.0420000 156.4600000  35.3160000  49.0277356 157.4173445  35.8369485
  48.0309924 156.2045237  34.9986743  49.5650000 155.3860000  36.2480000
  49.9900000 154.2950000  35.7380000  49.5190000 155.6010000  37.4850000
  49.0750000 156.6920000  32.8240000  48.6430000 155.6330000  32.3690000
  48.8240000 157.8890000  32.2550000  49.1131186 158.7225503  32.7466336
  48.0090000 158.0430000  31.0420000  47.4133468 157.1441695  30.8826255
  47.0620000 159.2410000  31.1750000  47.6772820 160.0573715  31.5532392
  46.6270035 159.5279834  30.2176502  45.9410000 158.9850000  32.1580000
  45.4690000 157.8600000  32.3280000  45.4310000 160.0220000  32.7650000
  44.6806677 159.8960028  33.4292484  45.7891120 160.9455146  32.5675729
  48.8420000 158.0850000  29.7540000  48.2890000 158.1800000  28.6570000
  50.1590000 157.9650000  29.8760000  50.5497975 157.9696419  30.8073190
  51.0730000 157.8730000  28.7430000  50.5144935 158.0309530  27.8203839
  52.1900000 158.9180000  28.8240000  52.5867304 158.8689941  29.8380526
  52.9864617 158.7017816  28.1119618  51.7790000 160.3510000  28.5900000
  51.6950000 160.8620000  27.3010000  51.9205572 160.2147261  26.4534976
  51.3250000 162.1940000  27.0850000  51.2225422 162.5680568  26.0663319
  51.0890000 163.0370000  28.1600000  50.8176622 164.0792926  27.9923638
  51.1990000 162.5510000  29.4470000  51.0225535 163.2111350  30.2962283
  51.5380000 161.2070000  29.6620000  51.6157172 160.8203664  30.6781567
  51.6320000 156.4410000  28.7560000  52.2140000 156.0210000  29.7600000
  51.3130000 155.6630000  27.6970000  50.8232735 156.1394374  26.9531756
  51.6280000 154.2390000  27.5230000  52.1995535 153.8860275  28.3813916
  50.3380000 153.3910000  27.4050000  49.6321861 154.0148181  26.8565687
  50.6355657 152.5468458  26.7829402  49.6830000 152.8800000  28.6670000
  50.4396190 152.3559772  29.2509766  49.0820000 154.0020000  29.5050000
  48.3249142 154.5262247  28.9218119  48.6238004 153.5819934  30.4004040
  49.8668025 154.7014476  29.7930251  48.5680000 151.9500000  28.3340000
  48.9570578 151.1031865  27.7686326  48.1066938 151.5908673  29.2539574
  47.8232174 152.4744760  27.7353993  52.4060000 154.0520000  26.2620000
  52.1190000 154.7380000  25.2950000  53.3960000 153.1390000  26.2590000
  53.6444478 152.6558716  27.1104458  54.1510000 152.8400000  25.0500000
  54.2388846 153.7465959  24.4512852  55.5790000 152.3170000  25.3720000
  55.4602666 151.4903297  26.0724411  55.9949402 151.9429748  24.4364793
  56.5370000 153.3720000  25.9770000  56.0610136 153.7193251  26.8940076
  57.4545207 152.8380254  26.2242426  56.9440000 154.8120000  24.9290000
  58.1020000 154.2140000  23.9770000  57.7076822 153.3704688  23.4103718
  58.4416675 154.9870588  23.2877201  58.9398279 153.8800338  24.5890558
  53.3320000 151.7950000  24.3110000  52.5180000 151.1330000  24.9270000
  53.4880000 151.6910000  23.0040000  54.1197487 152.2979079  22.5013513
  52.7470000 150.6910000  22.2510000  51.7421443 150.6157683  22.6665772
  52.6864533 151.0120074  21.2111021  53.4100000 149.3240000  22.3090000
  54.4190000 149.1330000  23.0090000  52.8330000 148.3510000  21.5730000
  51.9634127 148.5721617  21.1093139  53.3320000 146.9740000  21.4950000
  54.2647115 146.8458927  22.0443059  52.2710000 145.9730000  22.0350000
  51.3150880 146.2175154  21.5718101  52.6260000 144.5130000  21.7330000
  53.5816364 144.2675922  22.1962868  51.8505076 143.8597605  22.1329880
  52.6986982 144.3717954  20.6546330  52.0600000 146.1600000  23.5300000
  52.9783805 145.8578635  24.0333802  51.8806311 147.2202981  23.7080288
  50.8830000 145.3430000  24.0800000  51.0618793 144.2824901  23.9027408
  50.7858548 145.5204987  25.1510538  49.9641297 145.6449234  23.5773873
  53.7660000 146.6520000  20.0740000  53.1620000 147.1200000  19.1180000
  54.8300000 145.8780000  19.9650000  55.2845012 145.5952386  20.8214893
  55.3830000 145.4120000  18.7060000  56.1895946 144.7115314  18.9224442
  54.5959563 144.8993890  18.1529254  55.9210000 146.5310000  17.8650000
  56.9190000 147.1480000  18.2260000  55.2500000 146.7950000  16.7460000
  54.4825577 146.1779119  16.5216477  55.5890000 147.8650000  15.7900000
  56.6118638 147.7372060  15.4357153  54.6280000 147.8150000  14.5650000
  54.8810807 148.6751475  13.9451648  54.8681920 146.8974708  14.0278334
  53.1200000 147.8410000  14.8890000  52.8691838 146.9259741  15.4255815
  52.9216829 148.7019274  15.5274171  52.2750000 147.9380000  13.6330000
  52.5174518 148.8628523  13.1095841  52.4948781 147.0875328  12.9876639
  50.8420000 147.9350000  13.9420000  50.5030621 147.2017470  14.5482676
  49.9740000 148.8440000  13.4960000  50.3820000 149.8330000  12.7070000
  51.3550534 149.8962917  12.4438248  49.7170635 150.5165883  12.3743350
  48.6900000 148.7580000  13.8140000  48.3671284 147.9995077  14.3975611
  48.0404758 149.4513611  13.4712649  55.5520000 149.2590000  16.4570000
  56.3390000 150.1420000  16.1120000  54.6480000 149.4220000  17.4310000
  54.0503044 148.6305736  17.6220590  54.4150000 150.6510000  18.1620000
  54.7770757 151.5121956  17.6004464  52.8980000 150.8050000  18.3750000
  52.4323593 149.8880214  18.7361486  52.6989541 151.6141122  19.0777220
  52.2060000 151.1630000  17.1060000  50.8490000 151.4940000  17.1130000
  50.5320000 151.7200000  15.8570000  49.4959686 151.9732181  15.6320143
  51.5940000 151.5890000  15.0600000  51.6286997 151.7354190  14.0612722
  52.6630000 151.2120000  15.8400000  53.6332163 151.0232406  15.3804878
  55.1550000 150.7360000  19.4790000  54.7820000 151.5700000  20.2950000
  56.2170000 149.9250000  19.6910000  56.4513477 149.2417710  18.9850406
  56.9340000 149.8800000  20.9640000  56.2142577 149.8342295  21.7812975
  57.8440000 148.6640000  21.0490000  58.2682421 148.5766109  22.0492405
  57.2887864 147.7569962  20.8098726  59.2480000 148.7070000  19.9110000
  59.7613545 147.5366421  20.2792768  57.6910000 151.1830000  21.3240000
  57.9700000 151.3770000  22.5090000  58.0010000 152.0730000  20.3440000
  57.8277097 151.8226647  19.3809828  58.6770000 153.3500000  20.6220000
  58.9364764 153.3802819  21.6802316  59.9510000 153.5460000  19.8010000
  59.6085045 153.8271327  18.8051283  60.5327124 154.3626306  20.2285805
  60.8290000 152.3470000  19.6820000  60.8870000 151.7660000  18.6110000
  61.4800000 151.9190000  20.7670000  62.0793179 151.1083551  20.7055778
  61.3699473 152.4079791  21.6438630  57.7430000 154.5360000  20.4260000
  58.1960000 155.6910000  20.4270000  56.4400000 154.2450000  20.2480000
  56.1868700 153.2696715  20.1790151  55.3940000 155.2440000  20.0740000
  55.8621404 156.2143750  19.9087240  54.4620000 154.9330000  18.8750000
  55.1016062 154.7140811  18.0199692  53.8889031 154.0434804  19.1365625
  53.4970000 156.0770000  18.5140000  52.6518422 156.0194417  19.1999272
  54.0293906 157.0148991  18.6721380  52.9840000 156.0160000  17.0600000
  52.9110833 157.0434566  16.7034679  53.7355532 155.4825029  16.4780653
  51.6320000 155.3250000  16.9000000  51.8112036 154.2529466  16.9817807
  51.0071074 155.6528056  17.7307538  50.9340000 155.6180000  15.6030000
  51.5126856 155.3139313  14.8330877  50.0524341 155.1258245  15.5764498
  50.7674695 156.6112893  15.5272176  54.6450000 155.3140000  21.3750000
  54.2500000 154.2820000  21.9360000  54.5310000 156.5380000  21.8890000
  54.9789691 157.2845448  21.3770490  53.8570000 156.8640000  23.1310000
  53.8298843 156.0022147  23.7978509  54.6450000 157.9980000  23.8220000
  55.6801822 157.6587209  23.7847616  54.5271686 158.8740878  23.1842806
  54.2870000 158.3560000  25.2340000  53.2063451 158.4868312  25.2902942
  54.7080000 157.3070000  26.1930000  55.7886704 157.1759187  26.1376101
  54.4300578 157.6054113  27.2038410  54.2152844 156.3672153  25.9437283
  54.9280000 159.6390000  25.6090000  54.5823574 160.4274901  24.9404837
  54.6630107 159.8917248  26.6356509  56.0106167 159.5424913  25.5269869
  52.4080000 157.2740000  22.8220000  52.1660000 158.0060000  21.8720000
  51.4540000 156.7770000  23.6210000  51.7722497 156.1876600  24.3769728
  50.0080000 157.0040000  23.4750000  49.8144336 157.6155143  22.5937046
  49.2610000 155.6380000  23.3100000  49.4867306 154.9576344  24.1311258
  48.1935616 155.8585581  23.3045757  49.5550000 154.8820000  22.0260000
  50.7240000 154.1480000  21.8840000  51.4239395 154.0939290  22.7178230
  51.0070000 153.4860000  20.6950000  51.9513688 152.9546718  20.5768531
  50.0920000 153.5020000  19.6650000  50.3122284 152.9766943  18.7356705
  48.9060000 154.1770000  19.8070000  48.1775113 154.1797266  18.9961998
  48.6340000 154.8590000  20.9890000  47.6867349 155.3846559  21.1093102
  49.4580000 157.7240000  24.6720000  49.7320000 157.2870000  25.7810000
  48.6900000 158.8090000  24.4740000  48.5861092 159.1783428  23.5397132
  48.0020000 159.5020000  25.5810000  48.5309838 159.2721439  26.5059008
  47.9420000 161.0440000  25.4140000  48.9839507 161.3452949  25.5219782
  47.6112286 161.2407984  24.3942154  47.0700000 161.8470000  26.4010000
  46.0466234 161.4801982  26.3218952  47.5460000 161.7120000  27.8360000
  48.5692150 162.0790573  27.9159932  46.8988609 162.2959393  28.4904667
  47.5122251 160.6639215  28.1334744  47.0410000 163.3130000  26.0170000
  46.6268716 163.4183456  25.0142541  46.4208261 163.8624398  26.7252382
  48.0544182 163.7139483  26.0349710  46.6100000 158.9050000  25.5880000
  45.9510000 158.9000000  24.5520000  46.1950000 158.3330000  26.7260000
  46.8513527 158.2561181  27.4897995  44.9030000 157.6550000  26.8500000
  44.2382808 157.9185709  26.0273349  45.0820000 156.0860000  26.9000000
  44.1300003 155.6270989  27.1668460  45.5310000 155.5670000  25.5560000
  46.4832333 156.0251328  25.2886673  45.6502484 154.4846625  25.6052551
  44.7842932 155.8157994  24.8019264  46.0550000 155.5880000  27.9740000
  46.4791150 154.6571230  27.5975756  46.8405112 156.3398199  28.0504103
  45.4780000 155.3610000  29.2780000  44.6926673 154.6089049  29.2024667
  46.2510748 155.0108896  29.9620155  45.0540612 156.2916019  29.6553006
  44.0850000 158.2450000  28.0200000  44.5010000 159.2490000  28.5780000
  42.8950000 157.6590000  28.3310000  42.5972190 156.9794391  27.6457097
  41.9650000 158.0120000  29.4110000  41.0800006 157.3789896  29.3464009
  42.6140000 157.8150000  30.8040000  43.1677016 156.8811685  30.7066733
  43.3129699 158.6366328  30.9603988  41.6610000 157.7210000  32.0000000
  40.4830000 158.1940000  31.8780000  42.1010000 157.2170000  33.0760000
  41.3440000 159.4130000  29.2180000  41.6820000 160.3860000  29.9090000
  40.3490000 159.4730000  28.3350000  40.1159895 158.6273630  27.8342969
  39.6810000 160.7050000  27.9540000  40.2939845 161.5656830  28.2215332
  39.4540000 160.7170000  26.4320000  38.9355311 159.8334695  26.0596250
  38.9007151 161.6107864  26.1436916  40.7760000 160.7770000  25.7110000
  41.4310000 161.9990000  25.5180000  40.9583384 162.9137583  25.8756426
  42.6760000 162.0580000  24.8760000  43.1722638 163.0173387  24.7293981
  43.2720000 160.8990000  24.4300000  44.2405370 160.9399781  23.9316459
  42.6370000 159.6760000  24.6160000  43.1085197 158.7611771  24.2570177
  41.3940000 159.6170000  25.2630000  40.9052310 158.6550904  25.4177083
  38.3940000 160.9920000  28.7280000  37.6260000 161.8570000  28.3150000
  38.2150000 160.3270000  29.8660000  38.9307559 159.6735048  30.1501423
  37.0430000 160.4890000  30.7260000  36.1713216 160.2642707  30.1113678
  37.1309110 159.7442693  31.5170419  36.8640000 161.8590000  31.3550000
  35.7420000 162.2480000  31.6990000  37.9630000 162.6030000  31.5320000
  38.8726302 162.2116926  31.3331265  37.8960000 163.9540000  32.0940000
  36.8887044 164.1247717  32.4738577  38.9020000 164.1710000  33.2470000
  39.8456635 163.9438503  32.7510147  38.8905877 165.2202307  33.5421012
  38.7540000 163.2880000  34.4930000  38.7421839 162.2437894  34.1806132
  39.9120000 163.5150000  35.4740000  39.9241810 164.5589577  35.7872135
  39.7799226 162.8758076  36.3469773  40.8556000 163.2717038  34.9856083
  37.4000000 163.4850000  35.1690000  36.6037441 163.2274009  34.4706314
  37.3346588 162.8422166  36.0468732  37.2931666 164.5262842  35.4729947
  38.1070000 165.0170000  31.0010000  38.1230000 166.2100000  31.3180000
  38.2590000 164.5980000  29.7250000  38.2607045 163.6092381  29.5189749
  38.4900000 165.5310000  28.6320000  39.3551441 166.1497194  28.8703509
  38.7700000 164.7810000  27.3340000  37.9089387 164.1639181  27.0773223
  38.9552047 165.4966360  26.5329603  39.6462680 164.1456264  27.4626625
  37.3020000 166.4630000  28.4730000  36.1680000 166.0180000  28.6610000
  37.5460000 167.7550000  28.1800000  38.5059109 168.0675612  28.1487608
  36.4830000 168.7510000  27.9930000  35.5285582 168.2491565  27.8339620
  36.3640000 169.6600000  29.2550000  36.1524848 168.9905786  30.0888079
  37.3459174 170.1126018  29.3931662  35.2940000 170.7640000  29.2000000
  35.5154772 171.3698533  28.3213701  34.3355564 170.2632283  29.0631952
  35.2270000 171.6660000  30.4390000  34.3528990 172.3080166  30.3300913
  35.0970885 171.0205035  31.3076523  36.4610000 172.5220000  30.6270000
  37.3375782 171.8972593  30.4555058  36.4355713 173.3223386  29.8874659
  36.5310000 173.1100000  31.9910000  36.5550062 172.3685481  32.6763996
  37.3664910 173.6715350  32.0730560  35.7190454 173.6892775  32.1499542
  36.7530000 169.5610000  26.7100000  37.9100000 169.7560000  26.3160000
  35.6790000 170.0000000  26.0400000  34.7542714 169.7196235  26.3338798
  35.8020000 170.8450000  24.8600000  36.6126008 170.4766923  24.2312115
  34.4960000 170.8400000  24.0350000  33.9435607 169.9336788  24.2829758
  33.9104237 171.7125267  24.3246509  34.7580000 170.8800000  22.5360000
  35.3799554 171.7552423  22.3483216  35.3177687 169.9776400  22.2900174
  33.5090000 170.9520000  21.6730000  32.8956547 170.0820029  21.9075452
  32.9710446 171.8596174  21.9467408  33.8100000 170.9720000  20.1870000
  34.6787161 171.6103015  20.0257422  34.0446240 169.9542988  19.8750143
  32.6540000 171.4880000  19.3810000  32.4367078 172.4311704  19.6696405
  32.8983031 171.4836524  18.4010015  31.8490447 170.8964262  19.5299512
  36.1550000 172.2550000  25.3890000  35.5500000 172.7020000  26.3760000
  37.1880000 172.9110000  24.8090000  37.7627489 172.4459697  24.1208795
  37.5870000 174.2640000  25.2580000  37.0044137 174.5200453  26.1429481
  39.0980000 174.3700000  25.6100000  39.2052309 175.3464942  26.0822922
  39.3795008 173.5912688  26.3188265  39.9950000 174.2960000  24.4000000
  40.3110000 175.4390000  23.6730000  39.9158503 176.3984329  24.0068334
  41.1180000 175.3740000  22.5350000  41.3857820 176.2858593  22.0012329
  41.5870000 174.1500000  22.0920000  42.3310000 174.0990000  20.9450000
  42.4593502 174.9610486  20.5425102  41.2920000 172.9980000  22.8010000
  41.6951173 172.0368206  22.4820468  40.4720000 173.0720000  23.9320000
  40.1947943 172.1623103  24.4646554  37.1730000 175.3190000  24.2300000
  37.2320000 176.4930000  24.5240000  36.7770000 174.9020000  23.0340000
  36.8376789 173.9178247  22.8153302  36.3660000 175.8220000  21.9770000
  35.7701413 176.6251640  22.4105656  37.5940000 176.4480000  21.2550000
  37.2308839 177.2778219  20.6486654  38.2683343 176.8274607  22.0227128
  38.3390000 175.4610000  20.3690000  38.8453299 174.7550397  21.0272940
  37.5925006 174.9327247  19.7759014  39.3470000 176.1030000  19.4510000
  38.8516400 176.8151620  18.7910434  40.1093139 176.6189243  20.0347799
  40.0010000 175.0720000  18.6270000  39.4408645 174.2568285  18.4224443
  41.2510000 175.1220000  18.1550000  42.0260000 176.1730000  18.4120000
  41.6677075 176.9371572  18.9667885  42.9688715 176.2016100  18.0510645
  41.7280000 174.1290000  17.4080000  41.1423138 173.3337160  17.1968245
  42.6734542 174.1753312  17.0557665  35.4080000 175.1590000  20.9730000
  35.4950000 173.9460000  20.7630000  34.5140000 175.9690000  20.3350000
  34.4788887 176.9423375  20.6023587  33.5820000 175.4960000  19.2990000
  33.0796928 174.5965459  19.6550464  32.5170000 176.5520000  18.9600000
  31.9408447 176.6682115  19.8779538  32.9822055 177.5030440  18.7007721
  31.5940000 176.1170000  17.8350000  30.7010000 175.2790000  18.0900000
  31.8110000 176.5580000  16.6830000  34.3840000 175.1550000  18.0560000
  35.3080000 175.8930000  17.7220000  34.0550000 174.0330000  17.3840000
  33.3461176 173.4237538  17.7666280  34.7960000 173.5810000  16.2060000
  35.8546391 173.5204005  16.4584088  34.3290000 172.2020000  15.7120000
  34.4946613 171.5073201  16.5354534  33.2678354 172.2241691  15.4639308
  35.1030000 171.7090000  14.4960000  36.3410000 171.5680000  14.5070000
  34.3980000 171.4840000  13.3960000  34.8617957 171.1560691  12.5608625
  33.4003668 171.6415564  13.3982012  34.8210000 174.5980000  15.0560000
  35.9050000 174.8550000  14.5220000  33.6690000 175.1870000  14.6880000
  32.7855359 174.9006866  15.0850078  33.6530000 176.1160000  13.5570000
  34.4616119 175.8520866  12.8753874  32.3190000 176.0800000  12.7780000
  32.3496967 176.9296411  12.0958952  32.3343669 175.1533634  12.2042331
  31.0360000 176.1420000  13.6130000  31.0076061 175.2603570  14.2533126
  31.0793890 177.0384210  14.2315861  29.7840000 176.1820000  12.7500000
  29.8267000 175.3651531  12.0295578  28.9108820 176.0558569  13.3901971
  29.6520000 177.4470000  12.0190000  30.1141442 177.5111149  11.1232258
  28.9770000 178.5040000  12.4620000  28.3530000 178.4610000  13.6330000
  28.3909053 177.6202456  14.1913863  27.8432372 179.2692374  13.9600992
  28.9130000 179.6110000  11.7320000  29.3791119 179.6495863  10.8368180
  28.3984943 180.4095103  12.0751674  34.0730000 177.5600000  13.9320000
  35.0340000 178.0650000  13.3500000  33.3850000 178.2060000  14.8950000
  32.5836918 177.7323630  15.2870110  33.6510000 179.5960000  15.3150000
  33.7919862 180.2668588  14.4675505  32.4960000 180.1330000  16.1810000
  32.5874161 181.2183638  16.2225789  31.1430000 179.7650000  15.6410000
  31.0506609 178.6797094  15.5995593  30.3687153 180.1703983  16.2923330
  31.0267119 180.1775505  14.6388125  32.6370000 179.6640000  17.5170000
  31.9150741 180.0012954  18.0524018  35.0170000 179.8090000  16.0280000
  35.5270000 180.9310000  16.0550000  35.5760000 178.7370000  16.6120000
  34.9850576 177.9181614  16.5922554  36.8190000 178.6850000  17.4100000
  36.9105090 177.6846884  17.8332044  38.0980000 178.9950000  16.5900000
  37.9651106 179.9905516  16.1665420  38.9276344 179.0091571  17.2968284
  38.4030000 177.9950000  15.4620000  37.5274919 177.3608959  15.3223631
  38.5921858 178.5586339  14.5484205  39.6050000 177.1320000  15.7800000
  40.4477678 177.7938502  15.9794886  39.3751279 176.5568495  16.6769170
  39.9820000 176.1990000  14.7050000  40.6850014 176.5211108  14.0552823
  39.4810000 174.9710000  14.5450000  38.5340000 174.5170000  15.3610000
  38.1905936 175.1044338  16.1073871  38.1625851 173.5868739  15.2305545
  39.9090000 174.1970000  13.5560000  40.6168441 174.5385452  12.9216470
  39.5249919 173.2698263  13.4420467  36.6830000 179.5380000  18.7060000
  37.6940000 179.8420000  19.3480000  35.4180000 179.8650000  19.1140000
  34.6534546 179.6016309  18.5088501  35.1100000 180.6070000  20.3400000
  35.6707278 181.5416117  20.3535875  33.6100000 180.9330000  20.4180000
  33.3439707 181.3878690  19.4638397  33.0928295 179.9791490  20.5219374
  33.1950000 181.8670000  21.5630000  32.1061917 181.8999014  21.6019212
  33.5791346 181.4553512  22.4963209  33.7180000 183.2840000  21.4060000
  34.6900000 183.6950000  22.0610000  33.0860000 184.0650000  20.5320000
  33.3966819 185.0158082  20.3922074  32.2988699 183.7029688  20.0129036
  35.5460000 179.7880000  21.5740000  35.0820000 178.6580000  21.7580000
  36.4470000 180.3530000  22.4000000  36.8284194 181.2559450  22.1564658
  36.9380000 179.6990000  23.6010000  37.1690830 178.6561586  23.3837868
  38.1990000 180.3810000  24.1050000  38.8565885 180.7112786  23.3008901
  37.8706202 181.2447833  24.6830529  39.0290000 179.5470000  25.0190000
  40.1760000 178.9130000  24.5750000  40.6280000 178.2260000  25.6130000
  41.5510781 177.6620714  25.4787969  39.8300000 178.3610000  26.6760000
  39.9324190 177.9358895  27.5864346  38.8100000 179.2050000  26.3110000
  38.0344098 179.4658722  27.0310741  35.8700000 179.6950000  24.6880000
  35.0130000 180.5720000  24.7430000  35.9180000 178.6970000  25.5410000
  36.5875616 177.9601109  25.3713502  34.9810000 178.5390000  26.6490000
  33.9445895 178.6995921  26.3520779  35.1090000 177.1560000  27.3650000
  34.5369275 177.1756637  28.2926027  34.5710000 176.0540000  26.4600000
  35.1429173 176.0334134  25.5323215  34.6626922 175.0919718  26.9641776
  33.5220781 176.2473677  26.2353426  36.5610000 176.8860000  27.8610000
  37.1200464 176.5549238  26.9858106  36.9474110 177.8487573  28.1954912
  36.7140000 175.8630000  28.9770000  36.3282019 174.8998039  28.6430643
  37.7679855 175.7617097  29.2357548  36.1555642 176.1936367  29.8527447
  35.1280000 179.6950000  27.6340000  36.2450000 180.2020000  27.7690000
  34.0310000 180.1260000  28.3190000  32.7270000 179.6190000  28.3430000
  32.7924380 178.5310406  28.3557439  32.2267330 179.9417093  27.4299334
  32.0720000 180.1760000  29.5870000  32.2500822 179.5252418  30.4430955
  30.9987027 180.2952082  29.4389335  32.7540000 181.5370000  29.7670000
  32.7932637 181.9224633  30.7858108  32.2863413 182.2765621  29.1170440
  34.1600000 181.2300000  29.2760000  34.4973791 182.0948335  28.7047412
  35.1180000 180.9840000  30.4390000  35.3970000 179.8430000  30.8180000
  35.6010000 182.0910000  31.0060000  35.3596228 182.9735669  30.5783178
  36.4670000 182.1040000  32.1550000  37.1283548 181.2381609  32.1228791
  37.3240000 183.3740000  32.1830000  37.8528271 183.4482197  31.2327723
  36.6263192 184.2062913  32.2759120  38.3230000 183.4230000  33.3220000
  39.4970000 182.6800000  33.2800000  39.6794037 182.0432346  32.4143452
  40.4300000 182.7360000  34.3120000  41.3508988 182.1564007  34.2478757
  40.1840000 183.5220000  35.4220000  41.1050000 183.5500000  36.4430000
  41.8678276 182.9917657  36.2754647  39.0230000 184.2740000  35.4900000
  38.8212158 184.8940058  36.3634852  38.1080000 184.2360000  34.4330000
  37.2076796 184.8493611  34.4692143  35.5840000 182.0060000  33.3860000
  34.6790000 182.8310000  33.6270000  35.8060000 180.9290000  34.1170000
  36.5087778 180.2708814  33.8119056  35.1010000 180.6580000  35.3590000
  34.4423721 181.4947924  35.5915659  34.2600000 179.3910000  35.2530000
  34.8986329 178.6314681  34.8020471  34.0115326 179.0972507  36.2728408
  32.9990000 179.5250000  34.4500000  32.4749102 180.4376454  34.7337412
  33.2390267 179.5599012  33.3873283  32.1150000 178.3290000  34.7280000
  31.2287371 178.3596131  34.0942020  32.6618940 177.4045422  34.5425705
  31.6910000 178.3500000  36.1280000  32.2133923 178.9518157  36.7485026
  30.6960000 177.6340000  36.6310000  29.9960000 176.8160000  35.8520000
  30.2238740 176.7397869  34.8709980  29.2393240 176.2742729  36.2445211
  30.3800000 177.7410000  37.9150000  30.9003757 178.3704490  38.5092248
  29.6205032 177.1925191  38.2924018  36.1100000 180.4520000  36.4600000
  37.2830000 180.1330000  36.2260000  35.6370000 180.6440000  37.6620000
  34.7170986 181.0563142  37.7242713  36.3550000 180.3760000  38.8930000
  37.2560259 179.8039594  38.6715929  36.7620000 181.6820000  39.5910000
  35.9046817 182.3551254  39.5935957  37.0458259 181.4520217  40.6179629
  37.9280000 182.3500000  38.8810000  38.6862332 181.5672502  38.8589560
  37.6036870 182.5697194  37.8638257  38.5110000 183.5990000  39.5050000
  37.7480000 184.3580000  40.1480000  39.7240000 183.8440000  39.3050000
  35.3880000 179.5070000  39.6930000  34.3650000 179.0780000  39.1310000
  35.7000000 179.1900000  40.9510000  36.5870287 179.4674910  41.3463203
  34.7970000 178.3640000  41.7720000  35.2480917 178.1800787  42.7470838
  33.4650000 179.0760000  41.9780000  33.0489002 179.3039978  40.9966860
  32.8034018 178.3855322  42.5011082  33.5960000 180.3530000  42.7790000
  34.1860000 180.3890000  43.8780000  33.1070000 181.4070000  42.3280000
  34.5470000 176.9460000  41.1750000  33.4260000 176.4270000  41.2160000
  35.6070000 176.3410000  40.6070000  36.4809515 176.8463841  40.5770845
  35.5670000 174.9870000  40.0440000  34.5270368 174.6747162  39.9488443
  36.2340000 174.9110000  38.6540000  37.2782912 175.1781041  38.8158963
  36.1692057 173.8646711  38.3555079  35.6470000 175.7940000  37.5490000
  35.3631581 176.7351344  38.0199572  36.4499919 175.9736990  36.8341474
  34.4300000 175.2000000  36.8150000  33.7166664 174.8990345  37.5822509
  34.0013461 176.0036801  36.2162900  34.7370000 174.0290000  35.9320000
  35.5650166 174.2905572  35.2731549  35.0229343 173.1816894  36.5552218
  33.5490000 173.6640000  35.1140000  33.2841456 174.4488595  34.5361182
  33.7746918 172.8741932  34.5263195  32.7817550 173.4211883  35.7243087
  36.3240000 174.0700000  40.9910000  37.3920000 174.4520000  41.4800000
  35.7800000 172.8650000  41.2570000  34.8700110 172.6316718  40.8860858
  36.4660000 171.8730000  42.0910000  36.9450028 172.3804319  42.9283580
  35.4910000 170.8190000  42.6470000  34.8034636 170.5895674  41.8329032
  36.0424100 169.9194509  42.9206028  34.6840000 171.2780000  43.8490000
  34.9320000 172.3400000  44.4490000  33.7210000 170.4560000  44.2610000
  33.1515202 170.7085797  45.0559818  33.5644025 169.5836542  43.7766542
  37.4950000 171.2390000  41.1840000  37.2570000 171.1810000  39.9730000
  38.6520000 170.8170000  41.7370000  38.8279495 171.0203450  42.7105461
  39.7340000 170.2160000  40.9440000  39.8967132 170.8203742  40.0516125
  41.0640000 170.1340000  41.7360000  41.3258449 171.1821068  41.8809436
  40.8018798 169.6894002  42.6960646  42.2750000 169.3780000  41.1300000
  41.9839509 168.3379141  40.9829875  42.7240000 169.9720000  39.8010000
  43.0156656 171.0120114  39.9473090  43.5741883 169.4070979  39.4186830
  41.9038686 169.9225123  39.0847348  43.4310000 169.3910000  42.0730000
  43.1447363 168.9060241  43.0062475  44.2695459 168.8552949  41.6280707
  43.7245084 170.4211925  42.2746312  39.3640000 168.8570000  40.3270000
  38.8020000 167.9720000  40.9890000  39.7180000 168.7420000  39.0240000
  40.1162489 169.6003391  38.6707986  39.5620000 167.6190000  38.1010000
  38.9592746 166.8179986  38.5290397  38.8630000 168.1300000  36.8040000
  39.4118532 169.0058152  36.4578668  38.8180000 167.0920000  35.6980000
  38.2688663 166.2160149  36.0432564  38.3189347 167.5121427  34.8247800
  39.8338305 166.8011821  35.4303923  37.5270000 168.5360000  37.1120000
  37.0961681 168.8506872  36.3139047  40.9660000 167.0320000  37.8350000
  41.8780000 167.7600000  37.4130000  41.1100000 165.7290000  38.0740000
  40.3169625 165.2065272  38.4178213  42.3660000 165.0190000  37.8610000
  42.1389285 164.0402420  37.4384240  42.9663146 165.5896893  37.1524554
  43.1550000 164.8330000  39.1360000  42.6500000 165.1330000  40.2220000
  44.3940000 164.3040000  39.0310000  44.7320139 163.9907783  38.1322575
  45.2430000 164.0770000  40.2150000  44.6567548 163.8006718  41.0913894
  46.3170000 163.0090000  39.9880000  46.8829022 162.9050814  40.9137731
  45.7420000 161.6710000  39.5980000  45.1763064 161.7740344  38.6720009
  46.5514804 160.9559945  39.4510041  45.0819027 161.3142408  40.3886295
  47.2480000 163.4750000  39.0160000  47.9220865 162.8067325  38.8723814
  45.8830000 165.3730000  40.6830000  46.3570000 166.1670000  39.8620000
  45.9260000 165.5590000  42.0030000  45.4857832 164.8609343  42.5852480
  46.4800000 166.7480000  42.6460000  45.9776326 167.5949792  42.1787179
  46.1450000 166.7430000  44.1340000  46.6482533 165.9056731  44.6174459
  46.4795651 167.6770167  44.5854191  45.0674386 166.6427310  44.2640263
  47.9870000 166.9370000  42.4480000  48.4490000 168.0790000  42.4800000
  48.7510000 165.8340000  42.2690000  48.3172459 164.9243266  42.3357162
  50.2070000 165.9000000  42.1200000  50.6262597 166.4872580  42.9369752
  50.8410000 164.4990000  42.1460000  50.3190869 163.9251968  42.9118041
  50.6621598 164.0481213  41.1698726  52.3450000 164.4960000  42.4420000
  52.8230753 165.2461535  41.8120678  52.4917879 164.7556494  43.4903976
  52.9610000 163.1390000  42.1670000  52.5782066 162.7763290  41.2130409
  54.0421769 163.2608619  42.1013833  52.6620000 162.1430000  43.2030000
  52.1873994 162.4676362  44.0333403  52.9730000 160.8520000  43.1130000
  53.5710000 160.3770000  42.0270000  53.7919679 160.9993571  41.2628372
  53.8022053 159.3954740  41.9699877  52.6910000 160.0280000  44.1090000
  52.2381778 160.3812577  44.9398196  52.9298540 159.0495277  44.0339035
  50.6610000 166.6870000  40.8900000  51.6190000 167.4590000  40.9880000
  49.9760000 166.5130000  39.7570000  49.2233806 165.8425746  39.6922454
  50.4030000 167.1840000  38.5480000  51.3363276 167.7160235  38.7322547
  50.6330000 166.1620000  37.4100000  49.6614144 165.8897695  36.9976758
  51.2204231 166.6732922  36.6473635  51.3630000 164.9080000  37.8540000
  52.7550000 164.8790000  37.9500000  53.3200339 165.7636897  37.6564693
  53.4250000 163.7440000  38.4120000  54.5085784 163.7529993  38.5298075
  52.7020000 162.6110000  38.7440000  53.3350000 161.4590000  39.1480000
  54.2911003 161.5433010  39.1671116  51.3200000 162.6180000  38.6490000
  50.7492889 161.7321119  38.9275525  50.6610000 163.7560000  38.1980000
  49.5746985 163.7571799  38.1082902  49.4660000 168.3210000  38.1150000
  49.6820000 168.8820000  37.0450000  48.4600000 168.6870000  38.9480000
  48.3559690 168.1703644  39.8096058  47.4980000 169.7630000  38.6590000
  47.0040279 169.5565141  37.7095505  46.4470000 169.8250000  39.7480000
  46.9253577 170.0401300  40.7035067  45.7290552 170.6117766  39.5164010
  45.9292054 168.8677727  39.8088596  48.1850000 171.1180000  38.5460000
  49.1700000 171.3540000  39.2400000  47.6840000 172.0140000  37.6710000
  46.9301351 171.7753266  37.0426513  48.2930000 173.3390000  37.5520000
  49.3786019 173.2432703  37.5319134  47.8400000 174.0300000  36.2670000
  48.4117391 174.9521189  36.1625473  48.0655936 173.3666742  35.4320111
  46.4550000 174.3310000  36.2700000  46.2195160 174.7623907  35.4453491
  47.9670000 174.1880000  38.8050000  47.0850000 173.8110000  39.5830000
  48.6840000 175.3030000  39.0170000  49.4923940 175.4963909  38.4432419
  48.4110000 176.1870000  40.1530000  48.3331274 175.6380664  41.0914599
  49.5060000 177.2750000  40.2810000  49.7775690 177.6000256  39.2766549
  49.0310000 178.4950000  41.1070000  48.7596778 178.1708148  42.1116835
  49.8347218 179.2288299  41.1672129  48.1636596 178.9456219  40.6245483
  50.7810000 176.6700000  40.8800000  50.6631323 176.6755516  41.9635946
  50.8467739 175.6406821  40.5274692  52.0040000 177.3880000  40.5190000
  51.9391565 178.4173419  40.8716335  52.8622741 176.8997376  40.9805893
  52.1227969 177.3824743  39.4355072  46.9790000 176.7600000  40.0400000
  46.2380000 176.7530000  41.0310000  46.5870000 177.2060000  38.8210000
  47.2715103 177.2495372  38.0796165  45.2680000 177.7800000  38.5790000
  45.0429474 178.4900338  39.3748031  45.1830000 178.5050000  37.2410000
  45.6039502 177.8655148  36.4651400  44.1327082 178.6975804  37.0221394
  45.9250000 179.8190000  37.2380000  46.0210000 180.5140000  38.2660000
  46.4750000 180.1870000  36.0820000  46.9835807 181.0575942  36.0227451
  46.3809347 179.5937526  35.2700209  44.1570000 176.7720000  38.7500000
  43.1220000 177.1350000  39.3160000  44.3750000 175.4980000  38.3500000
  45.2245655 175.2628775  37.8569937  43.3770000 174.4410000  38.5610000
  42.4283471 174.7432080  38.1173479  43.8190000 173.1380000  37.9200000
  44.7632175 172.8177559  38.3604509  43.0612610 172.3732335  38.0904819
  43.9503706 173.2860054  36.8481160  43.1350000 174.2510000  40.0760000
  41.9920000 174.0220000  40.4620000  44.1920000 174.4160000  40.9220000
  45.1031851 174.5490471  40.5071030  44.0980000 174.3380000  42.3860000
  43.5598742 173.4292077  42.6554742  45.4810000 174.3110000  43.0650000
  46.2072672 174.9610679  42.5770995  45.3328197 174.6401307  44.0935016
  46.1040000 172.9490000  43.1360000  45.5690000 171.9500000  43.9290000
  46.3670000 170.9050000  43.7780000  46.1062889 169.9924272  44.3140407
  47.3830000 171.1790000  42.9630000  48.1306801 170.5637422  42.6757158
  47.2400000 172.4860000  42.5630000  47.9810029 172.9384481  41.9039805
  43.2670000 175.4930000  42.9610000  42.4630000 175.2670000  43.8660000
  43.4240000 176.7120000  42.4030000  44.1363824 176.7973205  41.6921336
  42.6890000 177.9250000  42.8050000  42.6671220 178.0032739  43.8919654
  43.3800000 179.1810000  42.2340000  43.2772966 179.0494897  41.1568481
  42.8031810 180.0502020  42.5500185  44.8450000 179.3920000  42.5810000
  45.4083481 178.5111649  42.2729913  45.3920000 180.6030000  41.8860000
  44.8294150 181.4843662  42.1938808  46.4414489 180.7316065  42.1509870
  45.3032975 180.4745166  40.8072395  45.0490000 179.5130000  44.0740000
  44.7069297 178.6009170  44.5630725  46.1076914 179.6629982  44.2855992
  44.4796780 180.3624534  44.4513598  41.1950000 177.9080000  42.3810000
  40.4430000 178.8350000  42.7000000  40.7960000 176.8520000  41.6750000
  41.4720597 176.1318013  41.4643902  39.4370000 176.6830000  41.1920000
  39.2631871 175.6125475  41.0823652  38.7699335 177.0825174  41.9558766
  39.1420000 177.3690000  39.8710000  37.9960000 177.3340000  39.4130000
  40.1700000 178.0100000  39.2530000  41.0220314 178.0933920  39.7888988
  40.0970000 178.6890000  37.9450000  39.2237743 179.3261418  37.8049058
  41.4010000 179.5320000  37.7180000  42.2519724 178.8871717  37.9374145
  41.5290000 180.0800000  36.2860000  40.6785620 180.7253349  36.0660028
  42.4519184 180.6530396  36.1968492  41.5473266 179.2504000  35.5792276
  41.5300000 180.6590000  38.7860000  40.6891676 181.3286988  38.6054311
  41.3995671 180.1642193  39.7484338  42.8680000 181.4890000  38.8000000
  42.9988954 181.9844776  37.8379874  42.8233490 182.2379024  39.5907280
  43.7092956 180.8199971  38.9809879  39.8040000 177.6190000  36.8470000
  40.2210000 176.4580000  36.9910000  39.0290000 177.9760000  35.7990000
  38.5748971 178.8778653  35.7760017  38.6930000 176.9980000  34.7500000
  38.4284411 176.0540016  35.2264187  37.5100000 177.4520000  33.8610000
  36.7047222 177.7697361  34.5233222  37.8507469 178.3023172  33.2702782
  37.0000000 176.3590000  32.9300000  37.5697971 176.4587342  32.0061574
  37.2737629 175.4280173  33.4264115  35.5170000 176.3440000  32.6100000
  34.9480000 177.4050000  32.2600000  34.9230000 175.2450000  32.6930000
  39.9200000 176.6140000  33.9290000  40.7310000 177.4770000  33.5540000
  40.0610000 175.3020000  33.6890000  39.4060535 174.6717636  34.1293935
  41.1560000 174.7320000  32.9210000  42.0860231 175.2274381  33.1997425
  41.3050000 173.2320000  33.1790000  40.3452433 172.7641975  32.9596208
  42.0592288 172.8535197  32.4890785  41.7150000 172.9030000  34.6100000
  42.3725478 173.6489515  35.0564170  40.7671753 172.8863726  35.1480091
  42.3650000 171.5500000  34.7380000  43.4300000 171.2840000  34.1660000
  41.8110000 170.7100000  35.5910000  42.2058534 169.7889094  35.7166356
  40.9945430 170.9918342  36.1145158  41.0380000 175.0000000  31.4300000
  39.9410000 175.0300000  30.8740000  42.1860000 175.2240000  30.7940000
  43.0151224 175.3182301  31.3630133  42.3070000 175.4290000  29.3630000
  41.5189965 174.8781937  28.8494223  42.1820000 176.9030000  29.0060000
  42.2112450 176.9948210  27.9202685  41.2216231 177.2631913  29.3748339
  43.2230000 177.6740000  29.5720000  43.1098111 178.5947781  29.3251079
  43.6410000 174.8130000  28.9050000  44.3030000 174.1250000  29.6970000
  44.0270000 175.0390000  27.6430000  43.4010588 175.5509177  27.0378246
  45.2400000 174.4690000  27.0620000  45.1436182 173.3839489  27.0236101
  45.4830000 174.9830000  25.6590000  45.4321650 176.0714352  25.6877038
  46.4841417 174.6743578  25.3580758  44.4740000 174.4580000  24.6640000
  44.5935584 173.3826135  24.5322785  43.4599042 174.6716296  25.0017486
  44.7200000 175.1460000  23.3690000  45.7872491 175.1395722  23.1475570
  44.1811757 174.6321895  22.5729054  44.2640000 176.5260000  23.4250000
  44.0365333 176.9153814  24.3287369  44.1240000 177.2930000  22.3520000
  44.4100000 176.8190000  21.1460000  44.7362198 175.8685238  21.0446312
  44.3001453 177.4108886  20.3350133  43.7050000 178.5450000  22.4770000
  43.4922752 178.9140516  23.3927779  43.6005436 179.1237011  21.6558468
  46.4690000 174.6370000  27.8980000  47.1880000 173.6670000  28.0770000
  46.6840000 175.8310000  28.4510000  46.0464866 176.5652504  28.1779573
  47.8100000 176.1770000  29.3320000  48.7463156 176.0552357  28.7874032
  47.7110000 177.6340000  29.8210000  48.5327211 177.7956823  30.5186622
  47.8432916 178.2754179  28.9496895  46.4050000 177.9680000  30.4970000
  45.6018958 177.8882615  29.7643566  46.2347728 177.2522740  31.3012767
  46.4300000 179.3510000  31.0590000  47.3571795 179.5037479  31.6113633
  46.3675620 180.0759058  30.2473890  45.3050000 179.5650000  31.9650000
  44.6342766 178.8172163  32.0701142  45.1190000 180.6820000  32.6520000
  45.9930000 181.6800000  32.5560000  46.8004880 181.5841756  31.9569333
  45.8451748 182.5290751  33.0826107  44.0610000 180.8130000  33.4400000
  43.3950271 180.0574730  33.5158884  43.9257965 181.6677272  33.9608264
  47.9840000 175.2470000  30.5380000  49.1190000 174.9470000  30.9210000
  46.8730000 174.7670000  31.0990000  45.9870594 175.1046355  30.7508465
  46.8700000 173.8990000  32.2740000  47.6212687 174.2318504  32.9901739
  45.4950000 173.9490000  32.9480000  44.7093912 173.4792558  32.3561737
  45.6353677 173.3903001  33.8733385  45.0940000 175.3860000  33.2770000
  45.7000000 175.9850000  34.2270000  44.2620000 175.9530000  32.5270000
  47.3280000 172.4810000  31.9630000  47.9990000 171.8850000  32.7930000
  47.0310000 171.9710000  30.7430000  46.4433347 172.5091375  30.1223900
  47.5120000 170.6620000  30.2850000  47.2570076 169.9025425  31.0241227
  46.8660000 170.2700000  28.9270000  46.7968517 171.2220408  28.4007529
  47.5579010 169.6133341  28.3995884  45.4900000 169.6190000  28.9810000
  45.0160000 169.2950000  30.1060000  44.9160000 169.3770000  27.9100000
  49.0320000 170.7260000  30.1310000  49.7350000 169.8180000  30.5740000
  49.5220000 171.8220000  29.5320000  48.8416633 172.4603096  29.1449571
  50.9360000 172.1000000  29.3090000  51.3998329 171.2433181  28.8200682
  51.1320000 173.3480000  28.4120000  50.7041793 174.1969977  28.9451713
  52.2058651 173.4954251  28.2971972  50.4850000 173.2340000  27.0360000
  49.4187987 173.4117762  27.1763966  50.9083124 174.0310211  26.4247178
  50.7190000 171.6430000  26.1890000  52.3420000 171.8090000  25.5570000
  53.0392650 171.9624430  26.3806357  52.6153273 170.9042601  25.0140096
  52.3839725 172.6638641  24.8820578  51.7060000 172.2370000  30.6210000
  52.8070000 171.6990000  30.7350000  51.1160000 172.9180000  31.6160000
  50.2232765 173.3588446  31.4462940  51.7690000 173.1440000  32.9120000
  52.7931343 173.4846936  32.7597631  51.0110000 174.2120000  33.7010000
  50.7237737 174.9895015  32.9931217  50.1153182 173.7380596  34.1025404
  51.8060000 174.8290000  34.8330000  52.4262180 174.0454236  35.2682454
  52.4447809 175.5992755  34.4008730  50.9380000 175.4400000  35.9090000
  50.1610000 176.3750000  35.6130000  51.0350000 174.9740000  37.0610000
  51.9150000 171.8230000  33.6950000  52.9670000 171.5600000  34.2870000
  50.8700000 170.9810000  33.6400000  50.0360108 171.3483504  33.2045519
  50.8280000 169.6270000  34.1830000  51.0099610 169.6578815  35.2572605
  49.4690000 168.9860000  33.9380000  49.1902216 169.1104473  32.8916278
  49.5184286 167.9235423  34.1764123  48.5000000 169.6100000  34.7620000
  47.6422901 169.2069467  34.6087628  51.9260000 168.7730000  33.5620000
  52.6190000 168.0820000  34.3030000  52.1440000 168.8790000  32.2330000
  51.4748155 169.3863712  31.6718708  53.2310000 168.1760000  31.5500000
  53.1600769 167.1095840  31.7640701  53.1650000 168.3770000  30.0260000
  52.2201759 167.8842543  29.7966350  53.0922581 169.4354411  29.7759779
  54.2910000 167.7330000  29.2030000  55.2188208 168.2629093  29.4185122
  54.4640000 166.2330000  29.5400000  53.5366691 165.7023136  29.3242961
  55.2699263 165.8151345  28.9366991  54.7074640 166.1232279  30.5967761
  54.0810000 167.9840000  27.7080000  54.0749860 169.0570349  27.5165337
  54.8897014 167.5193285  27.1439223  53.1285308 167.5546616  27.3972430
  54.6270000 168.5500000  32.1230000  55.4850000 167.6610000  32.2390000
  54.8100000 169.8340000  32.5050000  54.0517375 170.4810873  32.3424720
  56.0270000 170.3380000  33.1330000  56.8690139 170.1387979  32.4701047
  55.9248739 171.4136600  33.2766151  56.2910000 169.6820000  34.4790000
  57.4360000 169.3700000  34.8280000  55.2150000 169.4180000  35.2230000
  54.3073411 169.7507737  34.9305681  55.3220000 168.7450000  36.5110000
  56.1400055 169.1847753  37.0815820  54.0270000 168.8830000  37.3240000
  53.2187895 168.4936852  36.7048643  54.1112131 168.2829985  38.2300940
  53.7300000 170.3180000  37.6960000  54.7600000 171.2130000  37.9770000
  55.7887533 170.8552714  37.9346169  54.4980000 172.5370000  38.3060000
  55.3190314 173.2321235  38.4815355  53.1880000 172.9770000  38.3920000
  52.9530000 174.2770000  38.7530000  53.7588528 174.7723231  38.9168780
  52.1420000 172.1040000  38.1340000  51.1093340 172.4473283  38.1958641
  52.4180000 170.7770000  37.7930000  51.6003805 170.0830171  37.5980995
  55.7100000 167.2940000  36.3380000  56.5200000 166.8010000  37.1290000
  55.1410000 166.6220000  35.2930000  54.4262109 167.1222869  34.7841887
  55.3800000 165.2120000  34.9540000  55.2525910 164.5689987  35.8248705
  54.4360000 164.7070000  33.8190000  54.5661198 165.3544206  32.9518123
  54.7420000 163.2650000  33.4270000  54.6116387 162.6168703  34.2936227
  54.0629113 162.9515600  32.6340975  55.7704299 163.1946570  33.0727607
  52.9770000 164.8330000  34.2320000  52.7468136 165.8778078  34.4405497
  52.3381105 164.4748652  33.4247458  52.7994004 164.2367200  35.1269913
  56.8750000 165.0320000  34.6540000  57.5010000 164.1470000  35.2420000
  57.4560000 165.9430000  33.8290000  56.8392578 166.6040613  33.3787485
  58.8840000 165.9590000  33.4640000  59.1767417 164.9650460  33.1256852
  59.1780000 166.9680000  32.3390000  58.8653702 167.8806414  32.8463928
  60.2400601 167.0303403  32.1018458  58.3850000 166.8050000  31.0610000
  57.3466199 166.5942184  31.3168098  58.4530000 168.0810000  30.2070000
  59.4910999 168.2921843  29.9503903  57.8752181 167.9388135  29.2937356
  58.0409774 168.9182445  30.7703466  58.7740000 165.5220000  30.3260000
  58.5790067 164.6621417  30.9668750  58.1866390 165.4339139  29.4120256
  59.8340731 165.5539723  30.0743616  59.8060000 166.2070000  34.6540000
  60.8580000 165.5750000  34.7470000  59.4090000 167.1100000  35.5650000
  58.6077565 167.6846631  35.3462066  60.1790000 167.4180000  36.7880000
  61.2346863 167.4906617  36.5265697  59.7450000 168.7350000  37.4470000
  58.6614580 168.7090550  37.5625975  60.2135887 168.7866184  38.4297819
  60.1430000 169.9720000  36.6240000  59.4454205 170.0560671  35.7906835
  60.0457376 170.8459058  37.2681511  61.8480000 169.8920000  35.9740000
  62.8690000 169.6450000  37.6320000  62.5474710 168.7270240  38.1239737
  63.9316065 169.5784590  37.3984612  62.6957318 170.4921549  38.2956323
  60.1800000 166.2700000  37.7550000  61.2090000 165.9720000  38.3510000
  59.0590000 165.5560000  37.8110000  58.2737058 165.9376697  37.3033184
  58.8580000 164.3250000  38.5770000  59.1361825 164.4729822  39.6204630
  57.3700000 163.9370000  38.5150000  56.7796978 164.6445291  39.0972758
  57.1325081 164.0504124  37.4572499  57.0460000 162.5300000  38.9550000
  57.0040000 162.1950000  40.3070000  57.2634092 162.9551694  41.0438507
  56.6390000 160.9160000  40.7240000  56.6124983 160.6711724  41.7858187
  56.3000000 159.9600000  39.7860000  55.9540000 158.7120000  40.2180000
  55.9835815 158.6242197  41.1735204  56.3240000 160.2690000  38.4330000
  56.0591496 159.5164297  37.6903071  56.6900000 161.5520000  38.0260000
  56.7012780 161.8049962  36.9658275  59.7680000 163.2040000  38.0260000
  60.2760000 162.4320000  38.8060000  59.9590000 163.0790000  36.6860000
  59.4346218 163.6103300  36.0056947  60.9110000 162.0660000  36.1980000
  60.7451204 161.1387312  36.7464120  60.7600000 161.7840000  34.7070000
  60.8989909 162.7496293  34.2208511  61.5172393 161.0858501  34.3502432
  59.4240000 161.2510000  34.2370000  58.7300000 160.3020000  34.9840000
  59.1580199 159.9456458  35.9209688  57.5040000 159.8090000  34.5470000
  56.9579539 159.0923513  35.1604729  56.9810000 160.2240000  33.3440000
  56.0211986 159.8335287  33.0057498  57.6700000 161.1340000  32.5650000
  57.2556308 161.4639379  31.6123514  58.9000000 161.6310000  33.0010000
  59.4613504 162.3233932  32.3736426  62.3680000 162.4920000  36.5160000
  63.1920000 161.6420000  36.8650000  62.6360000 163.8250000  36.4770000
  61.8716859 164.4055028  36.1624529  63.9360000 164.4520000  36.6980000
  64.7046969 163.9238643  36.1338396  63.9040000 165.9110000  36.2340000
  62.8986060 166.2495612  36.4843166  64.6352015 166.5293159  36.7547012
  64.1110000 166.0700000  34.7400000  64.6780000 165.2090000  34.0780000
  63.7530000 167.2170000  34.1890000  63.8766880 167.3572846  33.1964672
  63.3574316 167.9477913  34.7630823  64.4400000 164.2920000  38.1330000
  65.5290000 163.7550000  38.3440000  63.6480000 164.7560000  39.1010000
  62.7701482 165.1461343  38.7891173  63.8690000 164.6080000  40.5390000
  64.9356042 164.6455590  40.7604588  63.1730000 165.7450000  41.2910000
  62.1301277 165.4382747  41.3712261  63.6264721 165.7517548  42.2821698
  63.2460000 167.1430000  40.6900000  64.1631388 167.6249184  41.0286916
  63.2600895 167.0593020  39.6033086  62.0380000 167.9830000  41.1220000
  62.2248913 169.0261340  40.8669667  61.1552678 167.6314501  40.5878691
  61.7830000 167.8900000  42.5640000  61.1769601 167.1433371  42.8727222
  62.2970000 168.7070000  43.4760000  63.0560000 169.7310000  43.1090000
  63.2443571 169.8905592  42.1296316  63.4420934 170.3464537  43.8106041
  62.0490000 168.5120000  44.7610000  61.4664169 167.7384961  45.0480343
  62.4434222 169.1375567  45.4489016  63.0850000 163.3450000  40.8870000
  61.9400000 163.2700000  40.4640000  63.6050000 162.3790000  41.6570000
  64.5692790 162.3669423  41.9571998  62.7590000 161.1970000  41.9590000
  62.5481734 160.6028562  41.0698181  63.4150000 160.3090000  42.9880000
  62.7023496 159.5332743  43.2681415  64.6930000 159.6600000  42.4640000
  65.4063583 160.4351516  42.1840721  65.1269472 159.0312186  43.2414464
  64.4597744 159.0494384  41.5916922  63.6700000 161.0940000  44.1600000
  64.0881091 160.5454996  44.8277817  61.3050000 161.5710000  42.3690000
  60.3380000 161.0180000  41.8350000  61.1810000 162.5730000  43.2640000
  62.0344073 162.9807025  43.6183642  59.9090000 163.0800000  43.7710000
  59.0780443 162.5595758  43.2947957  59.8310000 162.8470000  45.2800000
  58.7871656 162.7417581  45.5756908  60.3734477 161.9361244  45.5332906
  60.4080000 163.9470000  45.9660000  60.3567478 163.7962566  46.9127045
  59.7090000 164.5850000  43.4850000  60.6320000 165.2710000  43.0570000
  58.5140000 165.0900000  43.8210000  57.8036723 164.4259995  44.0941983
  58.1470000 166.4930000  43.7300000  58.9158501 167.0422563  43.1865974
  56.8210000 166.6490000  42.9900000  56.2273487 165.8238384  43.3834282
  56.3457227 167.5945897  43.2509055  56.9140000 166.5300000  41.4830000
  57.6669266 165.7840586  41.2284931  55.5920000 166.1170000  40.9170000
  54.8386072 166.8627379  41.1707184  55.6701243 166.0344420  39.8329421
  55.3028034 165.1525157  41.3344156  57.4300000 167.8180000  40.8570000
  58.4224878 168.0407781  41.2487107  57.4851469 167.6999466  39.7748154
  56.7523840 168.6368874  41.0985761  58.1050000 167.1460000  45.1300000
  57.8760000 166.4410000  46.1220000  58.3450000 168.4770000  45.2450000
  58.7070000 169.3920000  44.2440000  57.8018839 169.7475729  43.7516252
  59.3393654 168.8826045  43.5168624  59.4410000 170.4930000  44.9750000
  59.3786234 171.4319127  44.4248626  60.4879056 170.2281650  45.1231638
  58.7030000 170.5800000  46.3170000  57.7893817 171.1735591  46.3499881
  59.3987603 170.9426067  47.0736595  58.3780000 169.1170000  46.5700000
  59.2355799 168.6810945  47.0824854  57.1270000 168.9740000  47.4530000
  57.2470000 169.0710000  48.6790000  55.9460000 168.7430000  46.8340000
  56.0009785 168.6847163  45.8271834  54.6290000 168.6080000  47.4680000
  54.6741926 168.9300863  48.5083448  53.6130000 169.4890000  46.7250000
  52.6192784 169.2313069  47.0913482  53.7948234 170.5515790  46.8861402
  53.5910000 169.2770000  45.2350000  52.9150000 168.3140000  44.5480000
  52.2892588 167.6388342  45.1316941  53.1870000 168.4140000  43.2030000
  52.7911739 167.8316044  42.4789581  54.0450000 169.4640000  43.0000000
  54.5650000 169.9960000  41.8160000  54.2828142 169.5343898  40.8697517
  55.4080000 171.0790000  41.9230000  55.8418959 171.5118317  41.0216172
  55.7230000 171.6400000  43.1630000  56.3898018 172.4991232  43.2363639
  55.1980000 171.1220000  44.3360000  55.4760424 171.5976011  45.2765300
  54.3280000 170.0230000  44.2630000  54.1130000 167.1730000  47.4920000
  52.9200000 166.9570000  47.7460000  54.9980000 166.1940000  47.2240000
  55.9395349 166.4546268  46.9677089  54.6270000 164.7830000  47.1550000
  53.6550297 164.6839455  46.6717185  55.6550000 163.9870000  46.3520000
  56.1363016 164.6741215  45.6560746  56.3961304 163.6013857  47.0520909
  55.0380000 162.8290000  45.5770000  54.8150917 162.0195672  46.2721484
  54.1182122 163.1522499  45.0895557  55.9810000 162.3150000  44.5290000
  56.5120000 163.0790000  43.7200000  56.2020000 161.0080000  44.5040000
  56.8296211 160.6181355  43.8153790  55.7417224 160.4082010  45.1736918
  54.3700000 164.1220000  48.5070000  53.3240000 163.4910000  48.6630000
  55.3030000 164.2570000  49.4490000  56.1172612 164.8198915  49.2484229
  55.2030000 163.6250000  50.7670000  54.6785874 162.6802949  50.6233936
  56.2223041 163.4273615  51.0987490  54.4850000 164.4310000  51.8320000
  54.9530000 164.5110000  52.9770000  53.3560000 165.0570000  51.4410000
  53.1040905 164.9518161  50.4685920  52.5090000 165.8980000  52.2910000
  53.0355461 166.1165048  53.2200339  52.1550000 167.2410000  51.5930000
  51.4691707 166.9290126  50.8053444  51.6122174 167.8246980  52.3364943
  53.2710000 168.0970000  50.9880000  53.7571756 167.5337450  50.1914588
  52.7090000 169.3790000  50.4260000  52.2230356 169.9430566  51.2221015
  53.5166089 169.9745176  50.0002918  51.9806588 169.1471541  49.6489112
  54.3450000 168.4280000  51.9990000  54.7896469 167.5056321  52.3726657
  55.1155206 169.0363149  51.5253416  53.9053469 168.9810611  52.8290166
  51.2280000 165.1390000  52.6530000  50.2750000 165.0990000  51.8650000
  51.2190000 164.5160000  53.8340000  52.0764495 164.4667409  54.3654633
  50.0650000 163.7700000  54.3150000  49.4425963 163.4831269  53.4674054
  50.4930000 162.4880000  55.0710000  51.4113437 162.7195183  55.6105771
  49.7031301 162.2514421  55.7839136  50.7310000 161.2780000  54.1490000
  51.2219084 161.6271199  53.2405810  51.3824352 160.5729881  54.6654227
  49.4030000 160.5770000  53.7800000  48.9978786 160.1521730  54.6984213
  48.7266291 161.3459629  53.4067469  49.5480000 159.4890000  52.7440000
  50.0369272 159.9137112  51.8672611  50.1731849 158.6996481  53.1613327
  48.2290000 158.9210000  52.3500000  47.6496918 159.6521843  51.9628679
  48.3668007 158.1985828  51.6577397  47.7759710 158.5270202  53.1621846
  49.1040000 164.6380000  55.1350000  49.5110000 165.5970000  55.7990000
  47.8120000 164.3070000  55.0200000  47.6367601 163.5505973  54.3740547
  46.6730000 164.9060000  55.7100000  46.8805264 165.1606385  56.7493225
  46.2180000 166.1580000  54.9860000  45.9976366 165.9171461  53.9460339
  45.3210625 166.5499629  55.4655503  47.0077236 166.9082677  55.0251711
  45.5610000 163.8540000  55.7100000  45.4770000 163.0530000  54.7650000
  44.7390000 163.8300000  56.7770000  44.9356446 164.4681284  57.5347746
  43.6500000 162.8690000  56.9450000  44.1170250 161.8880804  57.0332250
  42.8860000 163.1630000  58.2330000  42.4052158 164.1382272  58.1563292
  42.1275906 162.3958836  58.3893583  43.5787496 163.1651708  59.0745418
  42.6930000 162.8100000  55.7370000  42.5610000 161.7500000  55.1060000
  42.0750000 163.9530000  55.3920000  42.1847330 164.7560727  55.9946045
  41.1200000 164.0400000  54.2880000  40.8459860 163.0495491  53.9246510
  39.8320000 164.7800000  54.7270000  39.3479826 164.1698712  55.4896075
  40.0920000 166.1700000  55.2810000  40.5756169 166.7808947  54.5187520
  39.1464791 166.6298434  55.5684602  40.7407721 166.0982745  56.1539552
  38.9500000 164.8740000  53.6110000  38.1483134 165.3317297  53.8744054
  41.7500000 164.6190000  53.0120000  42.7200000 165.3820000  53.0820000
  41.1680000 164.2540000  51.8480000  40.4274032 163.5700538  51.9099136
  41.5830000 164.7100000  50.5190000  42.6293734 164.4495167  50.3597817
  40.7390000 164.0580000  49.4080000  39.7104051 164.3885337  49.5523576
  41.1125333 164.4390578  48.4575433  40.7860000 162.5370000  49.3980000
  41.8302780 162.2249701  49.3831138  40.3112048 162.1719436  50.3087170
  40.0670000 161.9610000  48.1850000  39.0412129 162.3295731  48.1886936
  40.5755945 162.3125122  47.2872972  40.0590000 160.4490000  48.2000000
  41.0923411 160.1032411  48.2275221  39.5422320 160.1201143  49.1016009
  39.3790000 159.8830000  47.0050000  39.8579519 160.1872833  46.1694663
  39.3958181 158.8743441  47.0542989  38.4213465 160.2029228  46.9795413
  41.5260000 166.2430000  50.4090000  42.3750000 166.8170000  49.7410000
  40.5590000 166.9070000  51.0850000  39.8655293 166.3537006  51.5677603
  40.4030000 168.3740000  51.0790000  40.3990802 168.7404418  50.0524503
  39.0840000 168.7770000  51.7480000  38.2793565 168.2495232  51.2357342
  39.1277403 168.4508394  52.7871372  38.8180000 170.2910000  51.6970000
  39.5941478 170.7864282  52.2803063  38.8883542 170.6077234  50.6564047
  37.4530000 170.6660000  52.2490000  36.6932061 170.0553763  51.7611979
  37.4392460 170.4737280  53.3218195  37.1590000 172.1490000  51.9920000
  37.2210943 172.3199841  50.9172864  36.1439962 172.3518982  52.3336119
  38.1130000 173.0590000  52.6970000  39.0535382 172.8714467  52.3802802
  37.8745931 174.0192484  52.4940586  38.0553100 172.9010224  53.6928986
  41.5950000 169.0990000  51.7350000  41.9380000 170.2220000  51.3340000
  42.2060000 168.4400000  52.7530000  41.7763238 167.5630443  53.0107334
  43.3810000 168.8910000  53.5140000  43.3464412 169.9715250  53.6531782
  43.3950000 168.2140000  54.9040000  43.2048617 167.1513649  54.7531581
  44.3918004 168.3481648  55.3241056  42.3580000 168.7840000  55.8650000
  42.6312562 169.8278543  56.0192728  41.3712739 168.7314510  55.4048781
  42.3010000 168.0930000  57.2150000  42.6410000 166.9130000  57.3980000
  41.8180000 168.8220000  58.1980000  41.7488974 168.4302744  59.1263735
  41.5185662 169.7699667  58.0196750  44.6820000 168.5570000  52.7400000
  45.6560000 169.3150000  52.8020000  44.6840000 167.3940000  52.0470000
  43.8381220 166.8465363  52.1168080  45.7910000 166.8640000  51.2440000
  46.6708641 166.7082587  51.8682460  45.3760000 165.5070000  50.6270000
  44.6458689 165.0677049  51.3067261  44.8954182 165.7332184  49.6751773
  46.5190000 164.5170000  50.3980000  46.3351968 164.0102751  49.4506104
  47.4449666 165.0880606  50.3303410  46.6420000 163.4680000  51.5280000
  47.6554565 163.0688043  51.4874070  46.4965415 163.9933991  52.4718734
  45.6450000 162.3280000  51.4250000  44.6410537 162.7490837  51.4786738
  45.7834708 161.8420822  50.4591797  45.8220000 161.3280000  52.5130000
  45.6933052 161.7779688  53.4080226  45.1407317 160.5900671  52.4060956
  46.7520724 160.9373820  52.4631803  46.1760000 167.8500000  50.1240000
  47.3600000 168.0050000  49.8330000  45.1620000 168.5220000  49.5230000
  44.2474210 168.2970344  49.8877398  45.2530000 169.4820000  48.4140000
  46.0216845 169.1658150  47.7088402  43.9090000 169.5600000  47.6730000
  43.0961519 169.7270421  48.3797348  44.0528967 170.4548112  47.0674368
  43.5630000 168.3920000  46.7730000  43.8000000 167.0800000  47.1730000
  44.2915142 166.9058434  48.1301744  43.4220000 165.9990000  46.3760000
  43.6226604 164.9791739  46.7043170  42.7930000 166.2250000  45.1620000
  42.4370000 165.1790000  44.3450000  42.6702165 164.3220870  44.7095681
  42.5140000 167.5200000  44.7640000  42.0045719 167.7039070  43.8180816
  42.8860000 168.5920000  45.5760000  42.6461315 169.6120162  45.2757830
  45.6410000 170.8770000  48.8780000  46.3540000 171.5680000  48.1520000
  45.1550000 171.3050000  50.0570000  44.4808388 170.7241720  50.5347498
  45.4580000 172.6270000  50.6200000  45.1994852 173.3897590  49.8855151
  44.6760000 172.9070000  51.9160000  44.8170514 172.0388988  52.5598976
  45.1379309 173.7798356  52.3773869  43.1790000 173.1630000  51.7260000
  43.0683768 174.0239302  51.0667106  42.7627728 172.2795030  51.2419679
  42.4370000 173.4240000  53.0300000  41.4240000 172.7340000  53.3110000
  42.8720000 174.3180000  53.7870000  46.9720000 172.8060000  50.8180000
  47.4840000 173.9210000  50.6940000  47.6790000 171.6870000  51.0930000
  47.1450656 170.8451414  51.2551343  49.1270000 171.6390000  51.2930000
  49.4560400 172.5642795  51.7659585  49.5360000 170.4510000  52.1940000
  48.9870450 169.5726750  51.8544520  50.6048871 170.2851842  52.0595178
  49.2400000 170.6960000  53.6780000  49.7479510 171.6165217  53.9656222
  48.1629167 170.8290226  53.7794820  49.6990000 169.5580000  54.5840000
  49.1714088 168.6491630  54.2945839  50.7707323 169.4148853  54.4461324
  49.4150000 169.8640000  56.0350000  49.9456042 170.7781955  56.3010947
  48.3422531 170.0214837  56.1468575  49.8490000 168.7620000  56.9300000
  50.8430803 168.6161983  56.8268204  49.6420459 169.0051966  57.8881886
  49.3571326 167.9148942  56.6838754  49.8560000 171.6350000  49.9490000
  50.7230000 172.4780000  49.7430000  49.4720000 170.7190000  49.0280000
  48.8060991 170.0246623  49.3355231  50.0150000 170.6090000  47.6660000
  51.0893418 170.4249587  47.6617943  49.2930000 169.4810000  46.8750000
  48.2172683 169.6004833  47.0039396  49.6410000 169.5390000  45.3690000
  50.7165866 169.4191163  45.2392235  49.1206978 168.7377612  44.8442118
  49.3312996 170.5010530  44.9607858  49.6240000 168.0910000  47.4760000
  50.6820177 167.9184662  47.2786897  49.4649464 168.1786576  48.5507640
  48.7960000 166.9020000  46.9270000  48.9549147 166.8134180  45.8522911
  49.1119236 165.9813353  47.4175792  47.7378425 167.0736108  47.1243636
  49.9180000 171.9720000  46.9600000  50.9370000 172.4950000  46.4950000
  48.6950000 172.5550000  46.9390000  47.9357406 172.0180271  47.3330618
  48.3880000 173.8510000  46.3380000  48.5844143 173.8152803  45.2664382
  46.9210000 174.2100000  46.5530000  46.3200265 173.6438822  45.8413535
  46.6425972 173.9277500  47.5683457  46.6900000 175.5980000  46.3680000
  45.7600827 175.7893692  46.5102377  49.2830000 174.9570000  46.8800000
  49.8980000 175.6830000  46.0930000  49.3590000 175.0790000  48.2280000
  48.7378161 174.5213768  48.7965826  50.1770000 176.0940000  48.8870000
  50.0567710 177.0393420  48.3578755  49.7850000 176.3020000  50.3610000
  49.6359499 175.3133080  50.7950178  50.6279526 176.7897865  50.8504847
  48.5190000 177.1450000  50.5630000  47.7570649 176.5665088  50.0405982
  48.3226251 177.1193341  51.6348570  48.4840000 178.5910000  50.0740000
  49.5610000 179.2190000  49.9390000  47.3640000 179.1090000  49.8560000
  51.6780000 175.8360000  48.7210000  52.4350000 176.7990000  48.6320000
  52.1030000 174.5540000  48.6170000  51.4312275 173.8163718  48.7742441
  53.5060000 174.1830000  48.4040000  54.1394887 174.8013456  49.0399559
  53.7650000 172.7020000  48.7420000  53.4234399 172.5505617  49.7659641
  53.1478665 172.1136939  48.0629255  55.2260000 172.2560000  48.6200000
  55.2565229 171.1873075  48.8322865  55.5319660 172.4298618  47.5883707
  56.1780000 172.9900000  49.5640000  55.9846358 174.0599499  49.4870813
  55.9791753 172.6577031  50.5828950  57.6190000 172.7140000  49.2180000
  57.8437336 171.6826364  49.4898171  57.7420296 172.8407779  48.1424117
  58.5450000 173.6260000  49.9320000  58.4314624 173.5083720  50.9286808
  59.4969906 173.4090391  49.6736556  58.3372040 174.5817116  49.6799380
  53.9230000 174.5370000  46.9770000  54.9980000 175.1030000  46.7920000
  53.0400000 174.2750000  45.9830000  52.1932542 173.7847457  46.2335428
  53.2390000 174.6480000  44.5740000  54.1307065 174.1580666  44.1829450
  52.0310000 174.2130000  43.7320000  51.1313562 174.4777950  44.2875393
  52.0607825 174.7768188  42.7996259  52.0160000 172.7370000  43.4260000
  52.8883103 172.5125483  42.8121621  52.0884391 172.1976232  44.3704190
  50.7900000 172.3180000  42.7120000  49.9640520 172.2263282  43.4173405
  50.5359253 173.0543014  41.9495003  51.0400000 170.9930000  42.0620000
  51.6200017 171.1625307  41.1548297  51.6176526 170.3783741  42.7523996
  49.7850000 170.3000000  41.7200000  49.2497822 170.8691682  41.0799304
  49.9976368 169.4135291  41.2851956  49.2476037 170.1424317  42.5605216
  53.4160000 176.1620000  44.4400000  54.2920000 176.6370000  43.7070000
  52.5780000 176.9140000  45.1690000  51.8537333 176.4424232  45.6916399
  52.5890000 178.3700000  45.1640000  52.7473475 178.7400614  44.1510440
  51.2590000 178.8980000  45.6710000  51.1016470 178.4990941  46.6731045
  51.3280211 179.9847179  45.7197885  50.1060000 178.5090000  44.7910000
  50.3141821 178.8496829  43.7767534  50.0164443 177.4227046  44.7976460
  48.5610000 179.2320000  45.3510000  48.7630000 180.9270000  44.6910000
  48.8692754 180.8851089  43.6070029  47.8875715 181.5238445  44.9469340
  49.6526341 181.3829939  45.1254216  53.7520000 178.9680000  45.9450000
  54.1760000 180.0860000  45.6350000  54.2610000 178.2480000  46.9670000
  53.8052265 177.3944682  47.2565745  55.4000000 178.7290000  47.7540000
  55.4004388 179.8189995  47.7541621  55.3350000 178.2410000  49.1990000
  56.1583404 178.7061447  49.7410796  54.3874738 178.5790878  49.6185125
  55.4280000 176.8300000  49.3180000  55.3815681 176.5832770  50.2445914
  56.7280000 178.3530000  47.0950000  57.7280000 179.0160000  47.3650000
  56.7210000 177.3180000  46.2000000  55.8618562 176.7918733  46.1281536
  57.8980000 176.8330000  45.4670000  58.8104378 177.0999700  46.0001824
  57.8660000 175.2920000  45.2790000  57.0671360 175.0592513  44.5749087
  59.1750000 174.7350000  44.7590000  59.9743145 174.9669685  45.4628370
  59.0918334 173.6538728  44.6478860  59.4022067 175.1827492  43.7915299
  57.5650000 174.6530000  46.5120000  57.5479507 173.7017734  46.3836352
  58.1130000 177.5820000  44.1340000  57.4510000 177.2510000  43.1370000
  59.0690000 178.5530000  44.0760000  59.7700000 179.2700000  45.1190000
  60.6606311 178.7004077  45.3844075  59.1124542 179.3399020  45.9855138
  60.1000000 180.6250000  44.5350000  60.9666322 181.0606783  45.0322244
  59.2510828 181.3026865  44.6254538  60.3970000 180.3130000  43.0630000
  61.4089235 179.9337656  42.9205534  60.2255758 181.1517983  42.3883662
  59.3880000 179.2100000  42.7860000  58.4882519 179.6865573  42.3968409
  59.8950000 178.1820000  41.7780000  60.4960000 177.1850000  42.1970000
  59.6190000 178.3880000  40.4600000  59.0034794 179.1510478  40.2171177
  59.9930000 177.4250000  39.4020000  59.7209828 176.3971666  39.6421340
  59.4740000 177.7560000  37.9700000  59.4364317 176.8188615  37.4146089
  58.0980000 178.4140000  37.9500000  58.1348948 179.3514917  38.5048415
  57.8051406 178.6137213  36.9192501  57.3692975 177.7476511  38.4115988
  60.4730000 178.5410000  37.1620000  61.3923991 177.9643693  37.0604893
  60.0616001 178.7449099  36.1734301  60.6892318 179.4828093  37.6663212
  61.5150000 177.1350000  39.4510000  61.9270000 175.9890000  39.2870000
  62.3120000 178.1670000  39.7750000  61.8255387 179.0431997  39.9004144
  63.7720000 178.1560000  39.9150000  64.2345808 177.7681628  39.0074206
  64.2820000 179.5950000  40.1530000  63.7018699 180.0043781  40.9800174
  65.3283544 179.5159330  40.4479422  64.1630000 180.5190000  38.9410000
  64.6790947 181.4335400  39.2331706  64.7443805 180.0024890  38.1772512
  62.7880000 180.8680000  38.3830000  61.7990000 180.8950000  39.1560000
  62.7110000 181.1390000  37.1620000  64.2250000 177.2420000  41.0600000
  65.3110000 176.6580000  40.9830000  63.3840000 177.1170000  42.1130000
  62.5856432 177.7339955  42.1581915  63.6600000 176.2610000  43.2570000
  64.7318542 176.1861028  43.4403527  62.9620000 176.7430000  44.5680000
  61.8947738 176.8434404  44.3704165  63.1770000 175.7590000  45.7240000
  64.2440429 175.6583860  45.9224871  62.6753866 176.1316579  46.6170905
  62.7646351 174.7864184  45.4554078  63.4500000 178.1350000  44.9670000
  63.2229881 178.8425783  44.1695662  62.9486995 178.4475980  45.8830130
  64.5269089 178.1091742  45.1334363  63.3450000 174.8170000  42.8820000
  64.1670000 173.9290000  43.1290000  62.1760000 174.5840000  42.2670000
  61.5192968 175.3439438  42.1605783  61.7790000 173.2560000  41.8060000
  61.7810461 172.5521861  42.6383107  60.3540000 173.3160000  41.2140000
  59.7084182 173.4414085  42.0832503  60.3135906 174.2152295  40.5993022
  59.8700000 172.0990000  40.3820000  60.6731056 171.8063801  39.7056156
  59.5030000 170.9370000  41.2530000  58.6995793 171.2287360  41.9293905
  59.1696442 170.1066601  40.6304967  60.3723288 170.6288063  41.8338480
  58.6860000 172.4550000  39.5440000  58.9535626 173.2598676  38.8593849
  58.3693363 171.5826472  38.9723131  57.8698114 172.7826575  40.1878755
  62.7820000 172.6650000  40.7640000  63.1410000 171.4840000  40.8660000
  63.2360000 173.4990000  39.7900000  62.8673737 174.4392650  39.8007564
  64.0990000 173.1010000  38.6670000  64.0273368 172.0246066  38.5109847
  63.6710000 173.8110000  37.3810000  63.8266184 174.8861981  37.4694946
  64.2363994 173.4314062  36.5299230  61.9280000 173.5900000  36.9630000
  61.9586322 174.3174530  35.8499986  65.6050000 173.2750000  38.9190000
  66.3940000 173.1200000  37.9700000  66.0070000 173.5560000  40.1750000
  65.2982552 173.6857066  40.8827826  67.4120000 173.7640000  40.5500000
  67.8475663 174.5366433  39.9164358  67.5330000 174.2090000  42.0260000
  66.7499118 174.9426708  42.2173096  67.3692736 173.3319455  42.6521543
  68.8950000 174.8210000  42.3530000  69.6344184 174.3708579  41.6906305
  68.8384211 175.8921001  42.1589755  69.3030000 174.5890000  43.8000000
  68.5644907 175.0647399  44.4452710  69.3098136 173.5151243  43.9866656
  70.6690000 175.1590000  44.0940000  71.3775557 174.7311643  43.3847708
  70.6252395 176.2393637  43.9561654  71.1110000 174.8540000  45.4810000
  71.1520303 173.8529584  45.6087966  72.0263010 175.2512155  45.6376650
  70.4547995 175.2507213  46.1383524  68.2540000 172.5220000  40.2980000
  67.8550000 171.4240000  40.6840000  69.3960000 172.7200000  39.6420000
  69.6257440 173.6636874  39.3649240  70.3320000 171.6510000  39.3020000
  71.3349479 172.0768320  39.2726426  70.2813771 170.8955986  40.0861591
  70.0340000 170.9960000  37.9650000  70.8080000 170.1570000  37.4880000
  68.9040000 171.3820000  37.3470000  68.2875392 172.0155139  37.8356056
  68.4670000 170.8440000  36.0650000  69.0925660 169.9947990  35.7900017
  66.9950000 170.3690000  36.1450000  66.3069323 171.1003060  36.5690915
  66.6604218 170.0934035  35.1448980  66.8830000 169.1260000  36.9960000
  67.2250000 167.8830000  36.4840000  67.5363126 167.8001458  35.4426934
  67.1730000 166.7410000  37.2920000  67.4237903 165.7689112  36.8674435
  66.8060000 166.8410000  38.6220000  66.7878467 165.9540949  39.2553796
  66.4640000 168.0630000  39.1430000  66.1617154 168.1439086  40.1871159
  66.5030000 169.2070000  38.3340000  66.2336933 170.1779442  38.7497417
  68.6940000 171.8470000  34.9510000  68.8880000 173.0210000  35.2680000
  68.6990000 171.4420000  33.6500000  68.6860000 170.1330000  33.0520000
  67.6502005 169.8055216  32.9626823  69.2273244 169.4499021  33.7065565
  69.3600000 170.3000000  31.7090000  69.0284691 169.5313199  31.0109189
  70.4441597 170.2536136  31.8117010  68.9120000 171.6960000  31.2590000
  67.9160276 171.7071147  30.8162648  69.6183007 172.1667679  30.5751750
  68.8970000 172.4420000  32.5840000  69.8824887 172.8893885  32.7134362
  67.8300000 173.5390000  32.6250000  66.6790000 173.2820000  32.9810000
  68.2420000 174.7760000  32.3120000  69.2257459 174.8807888  32.1086220
  67.4050000 175.9730000  32.3190000  67.1653102 176.1850426  33.3609625
  68.1830000 177.1460000  31.7520000  68.4224721 176.9524480  30.7063945
  67.5804821 178.0514271  31.8246241  69.1056805 177.2778924  32.3171232
  66.0910000 175.8080000  31.5690000  65.1030000 176.4380000  31.9500000
  66.0750000 174.9450000  30.5330000  66.9633008 174.5103531  30.3278099
  64.9270000 174.6590000  29.6350000  64.6261113 175.5733233  29.1235531
  65.3020000 173.6170000  28.5890000  65.8229458 172.8099763  29.1041966
  64.3748993 173.2354679  28.1611945  66.1850000 174.1620000  27.4790000
  66.0425256 173.4787670  26.6417458  65.7179592 175.1197076  27.2492866
  67.6720000 174.3680000  27.7170000  68.1670000 174.0900000  28.8350000
  68.3530000 174.7860000  26.7540000  63.6630000 174.2290000  30.3750000
  62.5620000 174.6040000  29.9630000  63.8290000 173.4490000  31.4650000
  64.7536356 173.0802373  31.6357704  62.7390000 173.0020000  32.3200000
  61.9356108 172.5926013  31.7075805  63.2190000 171.9180000  33.2840000
  64.1240289 172.1951774  33.8245503  62.4298420 171.6782087  33.9966218
  63.5330000 170.6420000  32.5420000  62.5040000 169.7930000  32.1110000
  61.4725758 170.0450960  32.3573973  62.7860000 168.6320000  31.3720000
  61.9753322 167.9877397  31.0316367  64.0960000 168.3080000  31.0770000
  64.3241462 167.4046502  30.5113072  65.1290000 169.1420000  31.5060000
  66.1612822 168.8840650  31.2694345  64.8470000 170.3040000  32.2360000
  65.6599180 170.9497921  32.5679892  62.0570000 174.1690000  33.0390000
  60.8190000 174.2000000  33.1190000  62.8520000 175.1650000  33.5080000
  63.8566307 175.0661004  33.4758241  62.2960000 176.3610000  34.1220000
  61.5001043 176.0793350  34.8114302  63.3610000 177.1180000  34.8940000
  64.1605809 177.4147537  34.2152455  62.9202712 178.0065930  35.3459521
  63.7681370 176.4771165  35.6760531  61.6670000 177.2440000  33.0460000
  60.5710000 177.7510000  33.2570000  62.3160000 177.3700000  31.8710000
  63.2357145 176.9602326  31.7915319  61.7900000 178.1380000  30.7240000
  61.6425313 179.1747576  31.0264664  62.7560000 178.1080000  29.5190000
  62.9916433 177.0624463  29.3205335  62.2215424 178.5275669  28.6666980
  64.0390000 178.8810000  29.7400000  63.7921787 179.9395676  29.8213305
  64.4884152 178.5405298  30.6728494  65.2260000 178.6470000  28.3850000
  66.7410000 179.4030000  29.1320000  67.0036801 178.8664275  30.0436952
  67.5665703 179.3397058  28.4231078  66.5463437 180.4487822  29.3698018
  60.3990000 177.6230000  30.3060000  59.4940000 178.4280000  30.0530000
  60.2400000 176.2750000  30.2800000  61.0805241 175.7344137  30.4262364
  59.0080000 175.5640000  29.9560000  58.6401595 175.8969517  28.9854663
  59.2460000 174.0350000  29.8970000  59.9998945 173.8254204  29.1381728
  59.6211635 173.7320811  30.8745441  57.9870000 173.2650000  29.5810000
  57.0710000 172.9460000  30.5850000  57.3159065 173.1960847  31.6172683
  55.8670000 172.3220000  30.2890000  55.1410316 172.1241308  31.0776187
  55.5990000 171.9350000  28.9910000  54.4240000 171.2990000  28.7180000
  53.8734814 171.1782115  29.4951352  56.5070000 172.2080000  27.9790000
  56.2967253 171.9056668  26.9530957  57.6940000 172.8730000  28.2800000
  58.4106770 173.0938282  27.4889823  57.8850000 175.9340000  30.9300000
  56.8610000 176.4450000  30.4750000  58.0900000 175.7200000  32.2610000
  58.9232254 175.2165295  32.5299838  57.1000000 176.0460000  33.3080000
  56.1371955 175.6134226  33.0360009  57.5140000 175.4970000  34.6740000
  58.5813629 175.7178573  34.6664026  57.0400301 176.0254605  35.5011530
  57.3060000 173.9880000  34.8460000  57.5878075 173.4916096  33.9174086
  58.1430000 173.4400000  35.9860000  57.8614204 173.9356174  36.9150722
  57.9716621 172.3677003  36.0804327  59.1982847 173.6223023  35.7829227
  55.8170000 173.6370000  34.9600000  55.2976698 173.9564139  34.0564678
  55.7053985 172.5594917  35.0809224  55.3884383 174.1453420  35.8237258
  56.7540000 177.5420000  33.3910000  55.5750000 177.8790000  33.5150000
  57.7470000 178.4280000  33.2730000  58.7001702 178.0939852  33.2733465
  57.5190000 179.8690000  33.2520000  56.9124636 180.1565002  34.1108110
  58.8460000 180.6310000  33.3130000  59.5378942 180.0722704  32.6827597
  58.7039644 181.6294338  32.8994111  59.4470000 180.7610000  34.6920000
  58.7510000 180.8370000  35.7190000  60.7720000 180.8330000  34.7180000
  61.2526347 180.9213758  35.6019004  61.2935831 180.7990830  33.8537654
  56.6780000 180.3340000  32.0450000  55.8430000 181.2330000  32.1910000
  56.9000000 179.7250000  30.8580000  57.6566019 179.0576734  30.8097493
  56.1640000 180.0280000  29.6320000  56.2410788 181.0923296  29.4098276
  56.7430000 179.2290000  28.4360000  57.7061563 179.6979791  28.2347840
  56.8967733 178.1819682  28.6971095  55.8720000 179.3180000  27.2030000
  56.0220000 180.3590000  26.2930000  56.8179599 181.0860930  26.4538822
  55.1750000 180.4830000  25.1880000  55.3139326 181.2991912  24.4790349
  54.1390000 179.5840000  25.0130000  53.2990000 179.7070000  23.9410000
  53.5193486 180.4505626  23.3751724  53.9710000 178.5430000  25.9040000
  53.1635319 177.8247072  25.7620452  54.8380000 178.4120000  26.9880000
  54.7134158 177.5865553  27.6888709  54.6490000 179.7430000  29.8050000
  53.8170000 180.5800000  29.4260000  54.3270000 178.5330000  30.3560000
  55.1345266 177.9652737  30.5697452  52.9950000 177.9590000  30.5770000
  52.4039585 178.0305660  29.6639571  53.1110000 176.4850000  30.9700000
  53.7171688 176.3767989  31.8694171  52.1233805 176.0581103  31.1445647
  53.8920000 175.4450000  29.7100000  53.8073594 174.3085638  30.3957456
  52.2070000 178.7260000  31.5900000  50.9870000 178.8950000  31.4630000
  52.9100000 179.1630000  32.6290000  53.8788397 178.8902132  32.7128825
  52.3100000 179.9070000  33.7160000  51.3104076 179.5259237  33.9250336
  53.1620000 179.7600000  34.9760000  54.2120707 179.8153594  34.6889702
  52.9257444 180.5846215  35.6485196  52.9000000 178.4450000  35.6790000
  51.8836246 178.4884882  36.0703958  52.9651474 177.6606355  34.9249243
  53.8620000 178.1410000  36.8070000  53.4854806 177.2728290  37.3479355
  54.8317794 177.9034763  36.3697244  54.0320000 179.2470000  37.7540000
  53.6824812 180.1506376  37.4687369  54.6380000 179.1440000  38.9360000
  55.0900000 177.9610000  39.3590000  54.9714228 177.1420904  38.7798397
  55.5484211 177.8904452  40.2562022  54.7690000 180.2050000  39.7180000
  54.4071470 181.0984737  39.4165581  55.2301410 180.1156752  40.6121302
  52.0710000 181.3510000  33.3060000  51.2280000 182.0310000  33.8970000
  52.7790000 181.7690000  32.2570000  53.4336304 181.1001877  31.8771994
  52.6880000 183.0830000  31.6270000  52.4847429 183.8152706  32.4083869
  53.6519577 183.3010580  31.1672875  51.6040000 183.1760000  30.5690000
  51.2900000 184.2790000  30.1120000  51.0090000 182.0340000  30.1700000
  51.3281612 181.1421774  30.5205538  49.9410000 182.0440000  29.1590000
  50.2283612 182.7349053  28.3664266  49.6690000 180.6570000  28.5310000
  49.4382583 180.0436955  29.4020425  48.7727774 180.7735896  27.9216627
  50.7550000 179.9820000  27.7100000  51.7158978 180.1176847  28.2063526
  50.4630000 178.5110000  27.5760000  49.5024047 178.3745037  27.0792865
  51.2471942 178.0366547  26.9859688  50.4277128 178.0554297  28.5656014
  50.8940000 180.5910000  26.3580000  51.1504983 181.6456030  26.4586013
  51.6814107 180.0770872  25.8066568  49.9519657 180.4966547  25.8178432
  48.6180000 182.5920000  29.6950000  48.2460000 182.3390000  30.8560000
  47.8800000 183.3070000  28.8090000  48.2704020 183.5238835  27.9031042
  46.5460000 183.7940000  29.1190000  46.5262940 184.1598810  30.1455680
  46.1310000 184.9370000  28.1830000  46.2508502 184.5660295  27.1651021
  45.0760730 185.1314515  28.3764366  46.9260000 186.2310000  28.3500000
  46.7903656 186.5719137  29.3763927  47.9771441 185.9970208  28.1813230
  46.4870000 187.3370000  27.3820000  45.5423229 187.7501905  27.7354936
  47.2473813 188.1179734  27.3824426  46.3050000 186.8570000  26.0030000
  45.3772576 186.5327026  25.7701384  47.2490000 186.8190000  25.0590000
  48.4860000 187.2380000  25.3270000  48.7095747 187.5856927  26.2485336
  49.1938405 187.2058009  24.6072607  46.9650000 186.3620000  23.8420000
  46.0304020 186.0422176  23.6313680  47.6853359 186.3370003  23.1344762
  45.5930000 182.6040000  28.9680000  45.8750000 181.6600000  28.2300000
  44.4660000 182.6650000  29.6700000  44.3979785 183.4402670  30.3137650
  43.4020000 181.6690000  29.6730000  43.7175072 180.7870622  30.2304407
  42.1350000 182.2500000  30.3430000  42.3465573 182.4538971  31.3926517
  41.8166802 183.1694985  29.8517820  40.9510000 181.3130000  30.3150000
  40.9490000 180.1430000  31.0720000  41.8056497 179.9210222  31.7083780
  39.8720000 179.2630000  31.0230000  39.8822833 178.3536316  31.6238695
  38.8000000 179.5400000  30.2200000  37.9660033 178.8401804  30.1670672
  38.7730000 180.7040000  29.4770000  37.9042695 180.9322056  28.8594810
  39.8500000 181.5840000  29.5150000  39.8324386 182.4931191  28.9139226
  43.0820000 181.0910000  28.2940000  43.1770000 179.8840000  28.1310000
  42.7020000 181.9340000  27.3270000  42.6239087 182.9053447  27.5925007
  42.3240000 181.5540000  25.9630000  41.8395664 180.5776276  25.9520332
  41.3370000 182.5960000  25.4290000  40.8354441 182.1400760  24.5753759
  40.6121437 182.7732036  26.2235327  41.9620000 183.9280000  25.0020000
  42.6233188 183.6197640  24.1922168  41.1412539 184.5187672  24.5952209
  42.7440000 184.7680000  26.0040000  42.3540000 184.8270000  27.1970000
  43.7310000 185.4080000  25.5710000  43.5190000 181.3830000  24.9680000
  43.3100000 180.9970000  23.8070000  44.7510000 181.6880000  25.4250000
  44.8094445 182.0428335  26.3688097  45.9690000 181.6580000  24.6200000
  45.7747331 182.0796366  23.6338042  47.0620000 182.4790000  25.2940000
  46.6010733 183.4209818  25.5911803  47.3599319 181.9242645  26.1837220
  48.2870000 182.7620000  24.4400000  48.6734658 181.7964956  24.1135857
  47.9338239 183.3227933  23.5746234  49.3910000 183.5410000  25.1310000
  49.2000000 183.9850000  26.2890000  50.4630000 183.7020000  24.5040000
  46.4780000 180.2530000  24.2700000  46.5910000 179.3570000  25.1140000
  46.8280000 180.1000000  22.9960000  46.7072902 180.9059851  22.3994126
  47.3660000 178.8870000  22.4120000  46.8385158 178.0019520  22.7677383
  47.2260000 178.9610000  20.9000000  47.7567930 179.8372990  20.5278993
  47.6494274 178.0625607  20.4509830  46.1712605 179.0362731  20.6355047
  48.8350000 178.7340000  22.7640000  49.6270000 179.6600000  22.5130000
  49.2580000 177.5540000  23.2530000  48.5240000 176.5160000  23.9830000
  48.2550412 175.7256862  23.2821679  47.6175608 176.9591956  24.3953646
  49.4730000 176.0400000  25.0580000  49.2353826 175.0201876  25.3606873
  49.4323914 176.6954582  25.9279580  50.8460000 176.1170000  24.3780000
  51.0055828 175.2497150  23.7373370  51.6965920 176.2333867  25.0496004
  50.6830000 177.3660000  23.5260000  51.0655671 178.2054730  24.1065392
  51.4300000 177.2890000  22.1840000  50.8480000 176.9170000  21.1800000
  52.6810000 177.7470000  22.1370000  53.0664790 178.1381051  22.9846686
  53.5420000 177.6710000  20.9520000  52.9279791 177.7103818  20.0522630
  54.5430000 178.8460000  20.9180000  53.8870086 179.7076792  21.0416263
  55.1970565 178.7604816  21.7857538  55.3890000 179.0270000  19.6590000
  55.4840000 178.0760000  18.8570000  56.0230000 180.1050000  19.5170000
  54.2780000 176.3600000  21.1720000  55.3240000 176.3370000  21.8520000
  53.6810000 175.2620000  20.6560000  52.7817883 175.3755426  20.2103256
  54.2180000 173.9070000  20.8010000  54.4014088 173.7015545  21.8556338
  53.2380000 172.8570000  20.2600000  53.2351392 172.9983166  19.1792037
  53.6274869 171.8665448  20.4953687  51.8240000 172.9820000  20.7890000
  51.4320000 172.3280000  21.9560000  52.1627105 171.7274995  22.4978125
  50.1240000 172.4340000  22.4330000  49.8285949 171.9172126  23.3461093
  49.1880000 173.1850000  21.7230000  47.8970000 173.3360000  22.1480000
  47.7167932 172.8758624  22.9710423  49.5530000 173.8290000  20.5600000
  48.8234561 174.4189152  20.0051430  50.8610000 173.7230000  20.0950000
  51.1534599 174.2233411  19.1718391  55.5910000 173.7350000  20.1560000
  56.4150000 172.9680000  20.6750000  55.8320000 174.4400000  19.0320000
  55.0781178 174.9781751  18.6293482  57.0990000 174.3870000  18.3190000
  57.3408317 173.3435024  18.1171848  57.0670000 175.1560000  16.9760000
  56.1991514 174.8060669  16.4169965  56.9477366 176.2148049  17.2058007
  58.3550000 174.9520000  16.1180000  58.1804960 175.3809501  15.1312624
  59.1764100 175.4795492  16.6028501  58.8040000 173.1630000  15.9340000
  57.5020000 172.7070000  14.6800000  57.6350171 173.3099059  13.7817184
  57.5958133 171.6512718  14.4255639  56.5128488 172.8928358  15.0985046
  58.2100000 174.8910000  19.1960000  59.2380000 174.2360000  19.2850000
  57.9800000 176.0420000  19.8680000  57.1364155 176.5340340  19.6103818
  58.8770000 176.6670000  20.8250000  59.8351803 176.8758324  20.3492073
  58.2790000 178.0030000  21.3440000  58.3309331 178.7197201  20.5244181
  57.2352325 177.8118105  21.5931908  58.9890000 178.5670000  22.5510000
  60.1900000 179.2600000  22.4220000  60.5990732 179.4187219  21.4242195
  60.8670000 179.7470000  23.5380000  61.8315835 180.2399171  23.4167018
  60.3600000 179.5160000  24.8110000  60.9930000 180.0430000  25.9210000
  61.7753007 180.5534800  25.6996058  59.1590000 178.8370000  24.9590000
  58.7609777 178.6363942  25.9537040  58.4610000 178.4110000  23.8300000
  57.4815439 177.9451473  23.9383837  59.2130000 175.6990000  21.9520000
  60.3870000 175.4700000  22.2100000  58.2060000 175.0910000  22.5820000
  57.2606866 175.3586918  22.3478569  58.4080000 174.1520000  23.6870000
  59.0726924 174.5945216  24.4289285  57.0650000 173.8150000  24.3670000
  56.5019054 173.4043396  23.5289178  57.2028999 173.0433088  25.1243482
  56.2850000 175.0050000  24.9790000  56.1456678 175.7669109  24.2120716
  54.9400000 174.5550000  25.4900000  55.0785391 173.7933665  26.2573462
  54.4090083 175.4064668  25.9156206  54.3585841 174.1393359  24.6670302
  57.1330000 175.7560000  26.0880000  58.0516846 176.1406803  25.6451241
  56.5508501 176.5839760  26.4925473  57.3803742 175.0604604  26.8899536
  59.1630000 172.8850000  23.2850000  59.9990000 172.4350000  24.0550000
  58.8940000 172.3300000  22.0730000  58.1375256 172.7249379  21.5327501
  59.5860000 171.1510000  21.5420000  59.5973530 170.3698729  22.3021386
  58.9000000 170.6080000  20.2970000  58.3357665 171.4203232  19.8388835
  59.6710665 170.2671018  19.6060985  57.9550000 169.4490000  20.6180000
  58.4702034 168.7844470  21.3115673  57.0725844 169.8662707  21.1031082
  57.5300000 168.6610000  19.3780000  58.3903770 168.1476831  18.9486328
  56.7666368 167.9297056  19.6436774  56.9830000 169.5630000  18.3830000
  57.6276016 169.9975496  17.7382094  55.6990000 169.8710000  18.2960000
  54.8100000 169.2720000  19.0820000  55.1165923 168.5782437  19.7489359
  53.8320117 169.5133739  19.0086710  55.2860000 170.7570000  17.3970000
  55.9548910 171.1950274  16.7798964  54.3049228 170.9887027  17.3345491
  61.0380000 171.4740000  21.2520000  61.9220000 170.6950000  21.6280000
  61.2770000 172.6520000  20.6180000  60.4404592 173.1399840  20.3313460
  62.5700000 173.2410000  20.2850000  63.1166754 172.5772430  19.6151703
  62.3800000 174.5940000  19.5870000  61.5414073 175.0859548  20.0797900
  63.2904576 175.1673498  19.7614621  62.1130000 174.5120000  18.0990000
  61.2352413 173.8794230  17.9667618  61.9128895 175.5010106  17.6867914
  63.2640000 173.9010000  17.3460000  64.2210000 174.6020000  17.0000000
  63.1670000 172.5990000  17.0390000  63.9149100 172.1452482  16.5341817
  62.3464876 172.0782142  17.3140326  63.4640000 173.4410000  21.4880000
  64.6780000 173.2520000  21.3540000  62.8990000 173.8730000  22.6560000
  61.9049983 174.0510087  22.6753091  63.6650000 174.0570000  23.8990000
  64.3633175 174.8829071  23.7636142  62.7560000 174.3720000  25.1090000
  61.9579899 173.6396192  24.9869446  63.3451280 174.1229625  25.9916146
  62.1510000 175.7570000  25.2780000  61.5283767 175.9917525  24.4146737
  61.2990000 175.7830000  26.5400000  61.9210712 175.5487794  27.4038675
  60.8634879 176.7744126  26.6646238  60.5017630 175.0444425  26.4560576
  63.2250000 176.8260000  25.3350000  63.8024138 176.8113058  24.4106208
  62.7589752 177.8038746  25.4561756  63.8867061 176.6323148  26.1792334
  64.3900000 172.7610000  24.2040000  65.6150000 172.7650000  24.3600000
  63.6200000 171.6340000  24.2020000  62.6237222 171.7540455  24.0874624
  64.1260000 170.2980000  24.5100000  64.8555920 170.3626377  25.3172278
  63.0010000 169.3730000  24.9450000  62.2715686 169.2759790  24.1408756
  63.3787046 168.3863412  25.2132231  62.2480000 169.8920000  26.1530000
  62.9300000 170.3300000  27.2850000  64.0199753 170.3318509  27.2779129
  62.2380000 170.7630000  28.4190000  62.7886147 171.0842375  29.3031553
  60.8640000 170.7840000  28.4200000  60.3269671 171.1153365  29.3087698
  60.1610000 170.3850000  27.2940000  59.0719693 170.4301096  27.2851980
  60.8510000 169.9240000  26.1680000  60.2988905 169.5853641  25.2913012
  64.9700000 169.6840000  23.3990000  65.9370000 168.9850000  23.7030000
  64.6500000 169.9660000  22.1370000  63.8025335 170.4876277  21.9643607
  65.3960000 169.4620000  20.9920000  65.5858377 168.3947179  21.1058845
  64.5790000 169.6820000  19.7050000  63.6372152 169.1461148  19.8231846
  64.3807414 170.7508656  19.6255028  65.2770000 169.2040000  18.4500000
  65.4897072 170.0686380  17.8213048  66.2130358 168.7240932  18.7357071
  64.4370000 168.2400000  17.6970000  64.1628131 167.4073267  18.3447466
  63.5338013 168.7374383  17.3436070  65.1630000 167.7170000  16.5460000
  66.1627961 167.8559552  16.5113786  64.5830000 167.0590000  15.5570000
  63.2760000 166.8700000  15.5570000  62.7167360 167.2302853  16.3169462
  62.8417104 166.3660395  14.7970553  65.3100000 166.5970000  14.5470000
  66.3083390 166.7496441  14.5360836  64.8614659 166.0949636  13.7940888
  66.7970000 170.0780000  20.9130000  67.7710000 169.3590000  20.6600000
  66.8980000 171.4070000  21.1610000  66.0329248 171.9264462  21.2048168
  68.1680000 172.1590000  21.1880000  68.8128540 171.8564828  20.3629268
  67.9320000 173.6980000  21.1250000  67.2160219 173.9732747  21.8994027
  69.2360000 174.4640000  21.3420000  69.9523665 174.1895783  20.5676535
  69.0411733 175.5353186  21.2928090  69.6460992 174.2143682  22.3205713
  67.2810000 174.0950000  19.7550000  68.0658796 174.0306191  19.0013954
  66.5124591 173.3517451  19.5428288  66.6630000 175.4860000  19.7260000
  67.4310849 176.2298774  19.9376408  66.2371426 175.6744686  18.7404929
  65.8776654 175.5510041  20.4790763  69.0300000 171.6820000  22.3760000
  70.2390000 171.5290000  22.2180000  68.4030000 171.3760000  23.5330000
  67.4222109 171.6055541  23.6068721  69.0760000 170.8200000  24.7080000
  69.9415142 171.4307189  24.9649178  68.1080000 170.7990000  25.9180000
  68.0078027 171.8685890  26.1024971  67.1474406 170.3942642  25.5992294
  68.5580000 170.0940000  27.2140000  68.7058245 169.0380234  26.9878093
  69.8310000 170.6700000  27.7720000  69.6838056 171.7259150  27.9988834
  70.1024549 170.1374611  28.6834907  70.6303015 170.5645126  27.0384538
  67.4570000 170.0970000  28.2150000  66.5930859 169.5721421  27.8072304
  67.7901938 169.5959404  29.1238578  67.1800728 171.1251181  28.4482026
  69.6480000 169.4200000  24.4140000  70.8180000 169.1750000  24.7120000
  68.8290000 168.5250000  23.7890000  67.8956493 168.8564349  23.5912459
  69.1750000 167.1500000  23.4070000  69.3913965 166.5367469  24.2817528
  67.9880000 166.5740000  22.7010000  67.0397397 166.8654492  23.1526182
  68.0535050 166.9888392  21.6951583  67.9500000 165.0790000  22.5480000
  67.5220000 164.2670000  23.5980000  67.2550106 164.7262954  24.5497690
  67.4340000 162.8930000  23.4430000  67.1462398 162.2625638  24.2843352
  67.7120000 162.3240000  22.2190000  67.6100037 161.2463718  22.0908820
  68.1170000 163.1090000  21.1600000  68.3537867 162.6521569  20.1991011
  68.2230000 164.4860000  21.3200000  68.5223721 165.1109839  20.4786490
  70.4190000 167.0900000  22.4860000  71.3330000 166.2730000  22.6950000
  70.4580000 168.0020000  21.5090000  69.6487696 168.6038201  21.4537001
  71.5290000 168.2000000  20.5510000  71.7156131 167.2892559  19.9819481
  71.1020000 169.3110000  19.5750000  70.2041911 168.9533749  19.0708744
  70.8543349 170.1807264  20.1835540  72.1460000 169.6990000  18.5370000
  73.0743228 169.9410146  19.0544423  72.3099986 168.8472789  17.8768654
  71.6990000 170.8910000  17.7200000  72.1914874 170.8560620  16.7482313
  70.6191395 170.8376303  17.5816075  72.0270000 172.1640000  18.3670000
  72.8254240 172.1792882  18.9853726  71.3530000 173.2950000  18.1720000
  70.2860000 173.3130000  17.3780000  69.9860849 172.4637525  16.9209118
  69.7806208 174.1758324  17.2358320  71.7270000 174.4130000  18.7870000
  72.5261137 174.4029241  19.4045888  71.2102524 175.2671543  18.6337322
  72.7930000 168.6130000  21.3110000  73.8530000 168.0130000  21.1200000
  72.6620000 169.6360000  22.1760000  71.7761110 170.1198625  22.1416918
  73.7260000 170.1870000  23.0330000  74.5855106 170.4920685  22.4361132
  73.1880000 171.4120000  23.7780000  72.3588717 171.0799277  24.4027996
  74.2330000 172.0920000  24.6440000  75.0622872 172.4247821  24.0197898
  73.7875008 172.9519345  25.1441422  74.6006342 171.3882445  25.3907756
  72.7230000 172.3340000  22.7960000  72.3774335 173.1171431  23.2305929
  74.3570000 169.1100000  23.9620000  75.5690000 169.1030000  24.1530000
  73.5430000 168.1830000  24.4730000  72.5503692 168.3200406  24.3464958
  73.9860000 167.0790000  25.3130000  74.8229411 167.3969934  25.9346985
  72.8350000 166.6150000  26.2340000  72.0108796 166.4142295  25.5494447
  73.1239309 165.6910079  26.7348568  72.3880000 167.6530000  27.2870000
  72.2163810 168.6041315  26.7830193  71.1250000 167.2210000  27.9880000
  71.2959866 166.2701018  28.4926335  70.8399756 167.9750121  28.7217081
  70.3246526 167.1051265  27.2571664  73.4660000 167.9260000  28.3060000
  74.3525147 168.3124743  27.8031793  73.1078776 168.6614559  29.0263848
  73.7177513 167.0016384  28.8258806  74.6050000 165.9160000  24.5100000
  75.1090000 164.9580000  25.1190000  74.5930000 166.0200000  23.1480000
  74.0141058 166.7801247  22.8205993  75.1710000 165.0960000  22.1460000
  74.9865276 165.4983166  21.1499024  76.7030000 164.9030000  22.3280000
  76.8367855 164.4316059  23.3016469  77.0677874 164.2345895  21.5480913
  77.5180000 166.1790000  22.2920000  78.4430000 166.3750000  23.0890000
  77.1710000 167.0950000  21.3850000  77.6861887 167.9616015  21.3243182
  76.3948677 166.9172298  20.7636167  74.4400000 163.7560000  22.0570000
  75.0350000 162.7390000  21.7100000  73.1190000 163.8030000  22.2520000
  72.7504283 164.7153660  22.4796895  72.1880000 162.6750000  22.1860000
  72.7125885 161.7431680  22.3971757  71.0550000 162.8600000  23.2430000
  70.4918293 163.7792519  23.0820217  70.3910238 162.0030919  23.1292279
  71.4970000 162.8730000  24.6760000  72.5200000 162.0530000  25.1310000
  72.6320000 162.3070000  26.4230000  73.4090892 161.7764975  26.9732713
  71.7350000 163.2020000  26.8250000  71.6018409 163.5680951  27.7568492
  70.9930000 163.5590000  25.7240000  70.1775467 164.2751646  25.8252194
  71.5310000 162.5160000  20.7920000  71.2350000 163.5050000  20.1140000
  71.2300000 161.2630000  20.4170000  71.4748739 160.5242550  21.0607329
  70.5650000 160.8990000  19.1610000  70.4870327 161.7803892  18.5244677
  71.3460000 159.8220000  18.4100000  71.0692110 158.8772591  18.8779227
  70.9695249 159.8443750  17.3873242  72.8800000 159.9570000  18.3950000
  73.1903577 159.9160725  19.4390804  73.3168218 159.1179193  17.8534906
  73.3920000 161.2400000  17.7900000  72.8800000 161.7270000  16.7750000
  74.4540000 161.7890000  18.3760000  74.8392233 162.6490174  18.0125794
  74.8695319 161.3429344  19.1812702  69.1780000 160.3490000  19.4810000
  68.9770000 159.7440000  20.5370000  68.2150000 160.5570000  18.5810000
  68.3880738 161.1450473  17.7782889  66.8700000 160.0330000  18.7760000
  66.6454674 159.9727255  19.8409184  65.8320000 160.9610000  18.1040000
  66.2882018 161.1514068  17.1325452  64.8946668 160.4222313  17.9653104
  65.5570000 162.2860000  18.8040000  64.6680000 162.3590000  19.8860000
  64.1822467 161.4442440  20.2256536  64.3990000 163.5750000  20.5280000
  63.7656276 163.5994483  21.4147601  64.9510000 164.7540000  20.0340000
  64.6480000 165.9560000  20.6400000  64.0520301 165.8600188  21.3864630
  65.7980000 164.7120000  18.9270000  66.2235362 165.6326953  18.5278264
  66.1020000 163.4810000  18.3270000  66.7756390 163.4435778  17.4708983
  66.8330000 158.5610000  18.2350000  66.0470000 158.2520000  17.3430000
  67.7230000 157.6710000  18.7820000  68.3800288 158.0944174  19.4216328
  67.8870000 156.2380000  18.4550000  67.6886138 156.0828070  17.3945014
  69.3080000 155.7590000  18.7620000  69.3623523 154.7062562  18.4847356
  69.9329896 156.3445113  18.0877118  69.8020000 155.9330000  20.1900000
  68.9600000 156.1950000  21.0930000  71.0270000 155.7650000  20.4170000
  66.8640000 155.2880000  19.1110000  66.9300000 154.0710000  18.8840000
  65.9310000 155.8400000  19.9060000  66.0812210 156.8191592  20.1029269
  64.8650000 155.1370000  20.6370000  64.3870665 155.8429119  21.3162401
  63.7840000 154.5390000  19.7040000  64.1436818 153.7757487  19.0139452
  63.0824337 154.0905582  20.4074236  63.0890000 155.6310000  18.9280000
  62.2470000 156.5410000  19.5700000  62.0138174 156.3853035  20.6233204
  61.7070000 157.6330000  18.8900000  61.0594715 158.3376080  19.4118585
  62.0080000 157.8290000  17.5470000  61.4830000 158.8950000  16.8510000
  60.9144938 159.4508443  17.3889938  62.8370000 156.9350000  16.8880000
  63.0586577 157.0702163  15.8293760  63.3890000 155.8580000  17.5850000
  64.0700915 155.1733007  17.0796276  65.4030000 154.1120000  21.6480000
  64.7290000 153.1340000  21.9850000  66.6010000 154.3870000  22.1720000
  67.1582295 155.1217937  21.7600864  67.1900000 153.5870000  23.2220000
  66.6686386 152.6304120  23.2569409  68.6860000 153.3230000  22.9760000
  69.1965222 154.2854229  22.9412235  69.3010000 152.4690000  24.0470000
  68.7912684 151.5061690  24.0820677  70.3568869 152.3126969  23.8261578
  69.2019234 152.9673096  25.0113505  68.8290000 152.6340000  21.7380000
  69.7590453 152.4630205  21.5725250  66.8440000 154.3370000  24.5070000
  67.5190000 155.3090000  24.8570000  65.7200000 153.9570000  25.1430000
  65.1425896 153.2366175  24.7334323  65.2860000 154.5610000  26.3950000
  65.5635466 155.6149642  26.4100550  63.7680000 154.4530000  26.5500000
  63.5410191 153.3889101  26.4844898  63.4280161 154.8379822  27.5114050
  62.9390000 155.1360000  25.4950000  62.6340000 156.4900000  25.5940000
  63.0086343 157.0594529  26.4445719  61.8540000 157.1230000  24.6150000
  61.6663295 158.1945751  24.6828770  61.3230000 156.3920000  23.5650000
  60.6950217 156.8802170  22.8197568  61.5910000 155.0420000  23.4640000
  61.1883418 154.4644879  22.6318664  62.3890000 154.4090000  24.4420000
  62.5814334 153.3379911  24.3786820  65.9960000 153.8310000  27.5240000
  66.7800000 152.9240000  27.2530000  65.7610000 154.2210000  28.7770000
  65.1460337 155.0026116  28.9530656  66.4060000 153.5700000  29.9250000
  67.4870380 153.5669135  29.7855493  66.0830000 154.3130000  31.2200000
  64.9945690 154.3700135  31.2329076  66.4248796 153.7125072  32.0629868
  66.6600000 155.7020000  31.3260000  67.6140000 156.0140000  30.5830000
  66.1990000 156.4580000  32.1840000  65.9760000 152.1160000  30.0640000
  66.7870000 151.2570000  30.4470000  64.6860000 151.8530000  29.7850000
  64.0766501 152.6233289  29.5496589  64.1010000 150.5200000  29.9090000
  64.4783145 150.0406442  30.8123001  62.5790000 150.5910000  29.9940000
  62.1472453 149.5913797  29.9445392  62.2856948 151.0670050  30.9296770
  61.9470000 151.3860000  28.8920000  61.6580000 150.9590000  27.6310000
  61.9278314 149.9314029  27.3874123  61.0620000 151.9670000  26.9120000
  60.8186381 151.9211572  25.9328305  60.9100000 153.0620000  27.7180000
  60.3430000 154.3140000  27.4510000  59.8741960 154.4836165  26.4816952
  60.4170000 155.2620000  28.4470000  60.0000219 156.2541836  28.2743707
  61.0210000 154.9810000  29.6900000  61.0641018 155.7411214  30.4700366
  61.5740000 153.7430000  29.9590000  62.0272046 153.5766989  30.9362667
  61.5160000 152.7510000  28.9620000  64.5430000 149.6170000  28.7970000
  64.6260000 148.4050000  29.0050000  64.8460000 150.2020000  27.6270000
  64.6588073 151.1916349  27.5516269  65.3200000 149.4950000  26.4410000
  64.6667298 148.6771107  26.1370356  65.4290000 150.4950000  25.2780000
  65.9720091 151.3661690  25.6444777  66.1410000 149.9300000  24.0620000
  65.5982805 149.0590175  23.6946519  66.1825547 150.6880372  23.2798543
  67.1540885 149.6367119  24.3371989  64.1040000 150.9290000  24.9360000
  64.1498906 151.5554892  24.2100485  66.6220000 148.7940000  26.8080000
  66.7880000 147.5940000  26.5530000  67.4780000 149.5360000  27.5210000
  67.1964445 150.4987311  27.6392143  68.7820000 149.1320000  28.0240000
  69.3584278 148.6477163  27.2357745  69.5440000 150.3600000  28.4990000
  68.9347495 150.8691878  29.2457535  70.4747424 150.0252761  28.9570158
  69.8540000 151.3130000  27.3670000  70.3889920 150.7412474  26.6087234
  68.8983089 151.6466190  26.9627045  70.8360000 152.7500000  27.8270000
  72.3130000 151.9560000  28.5750000  72.7986226 151.3203852  27.8345518
  73.0107422 152.7249443  28.9066340  72.0076748 151.3506552  29.4284843
  68.7280000 148.0520000  29.1050000  69.5550000 147.1470000  29.0650000
  67.7770000 148.1320000  30.0610000  67.1818870 148.9476962  30.0850727
  67.6300000 147.1280000  31.1300000  68.6032233 146.9483907  31.5868109
  66.6530000 147.5920000  32.2220000  65.7619741 147.8715934  31.6598616
  66.4264481 146.7374332  32.8595655  67.0970000 148.7650000  33.0850000
  67.4764902 149.5564623  32.4387218  65.9440000 149.2900000  33.8960000
  65.5642462 148.4991808  34.5429087  66.2803130 150.1280040  34.5065273
  65.1507694 149.6237791  33.2270627  68.2470000 148.3830000  33.9910000
  69.0944754 148.0596395  33.3865806  68.5379280 149.2442164  34.5924719
  67.9382452 147.5695561  34.6475657  67.2060000 145.7700000  30.5810000
  67.4730000 144.7440000  31.2050000  66.5810000 145.7810000  29.3900000
  66.3313102 146.6988988  29.0505650  66.1280000 144.6130000  28.6310000
  65.9752188 143.7709316  29.3060392  64.7890000 144.9190000  27.9090000
  64.9415878 145.7778076  27.2553443  64.5177278 144.0502157  27.3092290
  63.6600000 145.2270000  28.9030000  63.5185599 144.3215648  29.4931548
  64.0301535 146.0252612  29.5463253  62.3190000 145.6490000  28.2840000
  62.4691636 146.5100976  27.6328005  61.9053467 144.8236518  27.7045255
  61.3540000 146.0190000  29.3980000  61.4104650 145.2304971  30.1484501
  61.7043368 146.9565323  29.8297365  59.9460000 146.1760000  28.9500000
  59.6210384 145.3072415  28.5503022  59.3665563 146.4205800  29.7402693
  59.8933923 146.9068902  28.2549238  67.2600000 144.1190000  27.6720000
  67.0820000 143.1430000  26.9370000  68.4320000 144.7910000  27.7290000
  68.4235003 145.5686709  28.3734029  69.6750000 144.4980000  27.0100000
  69.5339202 143.6141141  26.3879538  70.0900000 145.6780000  26.1040000
  70.0931765 146.5664084  26.7355218  71.1055170 145.4678036  25.7683771
  69.1890000 145.9200000  24.8860000  69.3829618 145.1055339  24.1880569
  68.1454989 145.8884916  25.1993922  69.4440000 147.2440000  24.1730000
  70.2770000 148.0700000  24.5790000  68.7010000 147.4960000  23.1000000
  68.8301818 148.3589904  22.5914127  68.0106796 146.8233285  22.7982182
  70.7350000 144.3030000  28.0980000  70.6760000 144.8240000  28.9490000
  71.4860000 143.6570000  27.9610000
