default_name
  5008
  59.2690000 119.6520000   7.3270000  58.7445591 120.5130378   7.3876350
  60.0128149 119.7716479   6.6543009  59.4801172 119.3339716   8.2620866
  58.3960000 118.6280000   6.7590000  58.8378896 118.2677265   5.8300028
  58.1940000 117.4320000   7.7030000  59.1745549 117.1155899   8.0586626
  57.5914829 117.7647162   8.5482060  57.4940000 116.2490000   7.0080000
  57.7130000 116.0920000   5.7880000  56.7310000 115.4790000   7.6560000
  57.0280000 119.2630000   6.4060000  56.6070000 120.3000000   6.9840000
  56.3360000 118.6090000   5.4550000  56.7268459 117.7513987   5.0918762
  55.0750000 119.0750000   4.9100000  54.7797825 120.0279394   5.3491495
  55.1610000 119.2440000   3.3720000  54.1572040 119.3999423   2.9768090
  56.0430000 120.4410000   3.0100000  57.0471512 120.2855584   3.4044843
  56.0908718 120.5430109   1.9258408  55.6201064 121.3482491   3.4414633
  55.6740000 118.0440000   2.7560000  55.7201595 118.1670779   1.8050418
  53.9220000 118.1420000   5.2000000  52.7870000 118.4650000   4.8120000
  54.1670000 116.9820000   5.8010000  55.0931718 116.6013942   5.9330769
  53.0270000 116.1950000   6.2490000  52.2816805 116.1452258   5.4551986
  53.4550000 114.7740000   6.6060000  54.0313685 114.3639213   5.7767027
  54.0794969 114.8110117   7.4985995  52.3270000 113.9480000   6.8520000
  52.6217048 113.0617079   7.0738901  52.3520000 116.8480000   7.4510000
  51.1310000 116.7310000   7.6280000  53.1150000 117.5570000   8.2680000
  54.0489913 117.8354782   8.0030293  52.6370000 117.9220000   9.5880000
  52.2459046 117.0467254  10.1066887  53.7980000 118.4950000  10.4030000
  54.3433850 119.0948866   9.6744463  53.4303592 119.1396196  11.2013770
  54.7280000 117.4400000  10.9900000  55.5223883 117.1855941  10.2883407
  55.3340000 118.0500000  12.2400000  54.5401997 118.3042597  12.9423759
  56.0120436 117.3329561  12.7028236  55.8857493 118.9516561  11.9741254
  54.0260000 116.1270000  11.2410000  53.6304597 115.7405052  10.3017082
  54.7330388 115.4104969  11.6591158  53.2070023 116.2807873  11.9436317
  51.5010000 118.9390000   9.5970000  50.6350000 118.8940000  10.4920000
  51.4970000 119.9110000   8.6750000  52.5210000 120.4390000   7.7890000
  52.5068670 119.8628153   6.8638450  53.4901370 120.3226554   8.2741148
  52.1540000 121.8900000   7.5750000  52.5554484 122.2562334   6.6301131
  52.5267963 122.5083192   8.3915817  50.6200000 121.8680000   7.5610000
  50.2288287 121.5553091   6.5928531  50.1548744 122.8094295   7.8533497
  50.3310000 120.8010000   8.6040000  50.2079336 121.3095123   9.5602260
  49.0830000 119.9960000   8.2960000  48.0390000 120.1590000   8.9470000
  49.2110000 119.0530000   7.3630000  50.0633790 118.9994863   6.8238473
  48.1250000 118.1360000   7.0330000  47.2002353 118.6481535   6.7672780
  48.5910000 117.3040000   5.8250000  49.6564085 117.0978111   5.9274259
  47.8370000 116.0110000   5.7530000  46.7714845 116.2163932   5.6500928
  48.1805874 115.4368731   4.8925204  48.0096972 115.4378856   6.6639424
  48.3920000 118.0790000   4.6290000  48.6791247 117.5707313   3.8668828
  47.7140000 117.2590000   8.2070000  46.6500000 116.6320000   8.1700000
  48.5100000 117.1950000   9.2430000  49.4054704 117.6621041   9.2497646
  48.1600000 116.3590000  10.3800000  47.5581952 115.5086236  10.0593910
  49.4490000 115.8320000  11.0260000  50.0833761 116.6777980  11.2911265
  49.1913025 115.2752897  11.9269804  50.1470000 114.9800000  10.1260000
  50.9490743 114.6599484  10.5453372  47.2760000 117.0690000  11.4060000
  46.6480000 116.3800000  12.2300000  47.1860000 118.3960000  11.3410000
  47.7422714 118.8973045  10.6632425  46.4230000 119.1760000  12.3340000
  46.7481087 120.2160612  12.3079963  44.9180000 119.1250000  12.0370000
  44.5188200 118.1479979  12.3094360  44.3877862 119.9005385  12.5897327
  44.5950000 119.3310000  10.5980000  44.3920000 118.2810000   9.7300000
  44.1180000 118.7460000   8.5330000  43.9270666 118.0697304   7.6997516
  44.1320000 120.0760000   8.5930000  43.9544462 120.7113416   7.8282023
  44.4290000 120.4530000   9.8720000  44.4903658 121.5107127  10.1280846
  46.8820000 118.6460000  13.6850000  46.0390000 118.1800000  14.4610000
  48.1960000 118.6540000  13.9100000  48.8011994 118.9820030  13.1709147
  48.8190000 118.1550000  15.1590000  48.4162556 117.1857992  15.4531871
  50.3330000 118.0200000  14.9740000  50.7183474 118.9890438  14.6568854
  51.0400000 117.5860000  16.2380000  50.6554840 116.6167498  16.5554920
  52.1102990 117.5069892  16.0474310  50.8646431 118.3209288  17.0236400
  50.5440000 117.0760000  13.9220000  51.4863159 116.9644933  13.7763727
  48.4730000 119.1070000  16.2930000  48.3180000 118.6280000  17.4210000
  48.4250000 120.4040000  16.0180000  48.6444364 120.7118484  15.0814231
  48.0630000 121.4270000  17.0270000  48.8867723 121.5358028  17.7324504
  47.7800000 122.7910000  16.3910000  47.4897300 123.4652620  17.1967377
  48.7267035 123.1221276  15.9641430  46.7180000 122.7990000  15.3230000
  47.0260000 122.5550000  14.0000000  48.0636467 122.3486081  13.7377192
  46.0550000 122.5680000  13.0180000  46.3290337 122.3963798  11.9770611
  44.7390000 122.7980000  13.3550000  43.7870000 122.7920000  12.3850000
  44.1434349 122.6184949  11.5106718  44.4090000 123.0310000  14.6730000
  43.3708911 123.2111888  14.9522176  45.3950000 123.0360000  15.6400000
  45.1364791 123.2300912  16.6809590  46.8110000 120.9760000  17.7690000
  46.6930000 121.3100000  18.9620000  45.8960000 120.2920000  17.0920000
  46.0537496 120.0840172  16.1163169  44.6140000 119.8710000  17.7010000
  44.1401647 120.6982302  18.2294596  43.6880000 119.4170000  16.5750000
  43.6380930 120.2986544  15.9360210  44.1834189 118.6077273  16.0385880
  42.2770000 118.9850000  16.9550000  42.0412486 119.3385369  17.9587598
  41.2880000 119.5870000  15.9580000  41.5228455 119.2335307  14.9540050
  40.2749810 119.2832540  16.2218782  41.3596289 120.6742873  15.9858556
  42.1660000 117.4610000  17.0130000  42.8616910 117.0735800  17.7573247
  41.1488232 117.1804124  17.2863554  42.4082509 117.0411243  16.0367224
  44.9980000 118.7830000  18.6940000  44.8480000 119.0240000  19.8910000
  45.5930000 117.6820000  18.2190000  45.7364558 117.6065812  17.2220889
  46.0500000 116.5730000  19.0770000  47.1003108 116.7217503  19.3276387
  45.4572798 116.5584036  19.9916415  45.8960000 115.2440000  18.3690000
  44.8940000 115.0940000  17.6430000  46.8270000 114.3030000  18.5610000
  47.6560921 114.5303836  19.0910966  46.7130000 112.9440000  17.9850000
  46.5764895 112.9625373  16.9037413  47.9380000 112.1240000  18.3020000
  48.0827118 112.0885588  19.3817696  47.8069600 111.1115459  17.9200767
  48.8111393 112.5782749  17.8336397  45.4400000 112.3330000  18.5750000
  44.7020000 111.6810000  17.8140000  45.1980000 112.5350000  19.8750000
  45.9102576 112.9688424  20.4447098  43.9440000 112.0920000  20.5330000
  44.0302690 112.2404016  21.6093985  42.7400000 112.8780000  20.0280000
  42.6519008 112.7061163  18.9552494  41.8572028 112.4848035  20.5321484
  42.8520000 114.3640000  20.2930000  43.1870000 114.8150000  21.4080000
  42.6090000 115.1670000  19.3720000  43.7500000 110.5880000  20.2950000
  44.6950000 109.8380000  20.6050000  42.5910000 110.1560000  19.7840000
  41.8663309 110.8409002  19.6231716  42.2610000 108.7210000  19.5840000
  43.1332485 108.2132008  19.1723914  41.8590000 108.0230000  20.8960000
  41.7460228 106.9665873  20.6524273  42.7018983 108.1506015  21.5752204
  40.5930000 108.5260000  21.5620000  40.7192473 109.5876938  21.7740585
  39.7657058 108.3910563  20.8652385  40.2260000 107.6610000  23.0860000
  39.6790000 106.0580000  22.4600000  40.4827344 105.5985481  21.8846619
  39.4161783 105.4109909  23.2969018  38.8074292 106.1954650  21.8200243
  41.2150000 108.6070000  18.4770000  40.6750000 109.6600000  18.1340000
  41.0040000 107.4240000  17.8940000  41.6822739 106.7010565  18.0873820
  39.9330000 107.1410000  16.8890000  39.8181754 106.0624909  16.7806826
  38.5810000 107.7390000  17.3170000  38.7471947 108.8042808  17.4771730
  37.8985218 107.6003158  16.4784953  37.9710000 107.1230000  18.5780000
  38.7421151 107.1056664  19.3481830  37.1588387 107.7784625  18.8924236
  37.4330000 105.7140000  18.3670000  37.0510000 105.0450000  19.3610000
  37.3800000 105.2710000  17.2000000  40.2980000 107.5740000  15.4600000
  40.4090000 108.7930000  15.2260000  40.4750000 106.6110000  14.5480000
  40.4855445 105.6721028  14.9201025  40.7480000 106.7980000  13.0970000
  40.4474188 107.8106617  12.8281757  42.2210000 106.6000000  12.6980000
  42.8053356 107.2860891  13.3111337  42.4789674 105.5729710  12.9563877
  42.5310000 106.8470000  11.2200000  41.9909688 106.1007744  10.6372354
  42.1542911 107.8402619  10.9758272  44.0160000 106.7720000  10.8890000
  44.5930000 107.7840000  10.4170000  44.6150000 105.6990000  11.1090000
  39.7880000 105.8310000  12.4040000  39.7850000 104.6680000  12.8430000
  39.0130000 106.2880000  11.4150000  39.1080119 107.2561028  11.1432481
  37.9920000 105.4610000  10.7260000  37.9038664 104.4932683  11.2197884
  36.6320000 106.1550000  10.7660000  36.6888289 107.1547524  10.3354598
  35.9242631 105.5538469  10.1951905  36.0510000 106.3120000  12.1410000
  36.3260000 107.4360000  12.9120000  36.9847295 108.2064192  12.5112137
  35.7710000 107.5850000  14.1830000  36.0058681 108.4691650  14.7756129
  34.9220000 106.6120000  14.6940000  34.4850002 106.7282184  15.6857784
  34.6290000 105.4800000  13.9300000  33.9678818 104.7059360  14.3196765
  35.1900000 105.3440000  12.6580000  34.9572537 104.4695332  12.0503513
  38.4430000 105.2230000   9.2920000  38.3390000 106.1730000   8.4830000
  38.9170000 104.0130000   8.9840000  39.0016718 103.3345710   9.7274138
  39.3970000 103.6380000   7.6320000  39.7181158 104.5407907   7.1124302
  40.5680000 102.6550000   7.6730000  40.2982706 101.7919032   8.2816125
  40.8087079 102.3252973   6.6623290  41.8280000 103.2100000   8.2530000
  42.6110000 104.1150000   7.5650000  43.6540000 104.4400000   8.3080000
  44.3974231 105.1478926   7.9415179  43.5750000 103.7780000   9.4510000
  44.2338774 103.8272355  10.2149086  42.4410000 103.0020000   9.4370000
  42.1982095 102.3762019  10.2957961  38.2440000 103.0590000   6.8060000
  38.5710000 102.3910000   5.8030000  36.9600000 103.2900000   7.1620000
  36.7391155 103.8003317   8.0051316  35.8770000 102.8160000   6.3510000
  36.0685374 101.7793779   6.0738227  34.9522791 102.8730963   6.9252217
  35.7290000 103.6310000   5.1100000  36.2720000 104.7280000   5.0240000
  35.0030000 103.0740000   4.1540000  34.6398443 102.1330951   4.2079932
  34.7610000 103.8250000   2.9660000  35.0512949 104.8645685   3.1180704
  35.5960000 103.2410000   1.7760000  36.6564182 103.2560510   2.0277655
  35.2850713 102.2155848   1.5761327  35.3560000 104.0960000   0.5350000
  34.2864041 104.0784084   0.3258208  35.6623292 105.1145062   0.7735571
  36.1140000 103.6140000  -0.6790000  37.1914581 103.6235168  -0.5144024
  35.8019713 102.6143202  -0.9812877  35.7940000 104.5570000  -1.7650000
  35.1345765 105.2921231  -1.5532124  36.3270000 104.5200000  -2.9640000
  35.9470000 105.4360000  -3.8710000  35.2622954 106.1353391  -3.6215919
  36.3478472 105.4209013  -4.7979267  37.2400000 103.6410000  -3.3020000
  37.5557992 102.9601202  -2.6261497  37.6229731 103.6491317  -4.2365396
  33.2930000 103.7610000   2.7130000  32.7240000 102.6780000   2.5900000
  32.6790000 104.9300000   2.6260000  33.2397044 105.7668049   2.6999430
  31.2370000 105.0760000   2.4650000  30.7379869 104.1305603   2.2523294
  30.6180000 105.6840000   3.7390000  31.1893076 106.5669454   4.0255575
  29.1540000 106.0810000   3.4860000  28.5819247 105.1984271   3.1998276
  28.7307384 106.5087551   4.3948313  29.1101893 106.8176078   2.6837593
  30.7400000 104.7480000   4.8200000  30.3549827 105.1248633   5.6145665
  30.9810000 105.9630000   1.2530000  31.2080000 107.1790000   1.3300000
  30.4800000 105.3660000   0.1540000  30.2030231 104.3962535   0.2085421
  30.3610000 106.0520000  -1.1380000  30.3526469 107.1324340  -0.9941534
  31.5610000 105.6840000  -2.0230000  31.8840982 104.7474518  -1.5684846
  31.1640865 105.4861125  -3.0186908  32.7450000 106.6300000  -2.1290000
  33.5102514 106.2169380  -2.7861688  32.2130000 107.9610000  -2.7270000
  31.4479847 108.3749286  -2.0701031  33.0341124 108.6717128  -2.8206085
  31.7830066 107.7717990  -3.7105696  33.4970000 106.8940000  -0.8370000
  33.8912380 105.9555298  -0.4471929  34.3206695 107.5815018  -1.0293829
  32.8198177 107.3347969  -0.1054119  29.0610000 105.7070000  -1.8610000
  28.7980000 104.5460000  -2.1870000  28.2840000 106.7340000  -2.1710000
  28.5941745 107.6674366  -1.9416811  26.9620000 106.5710000  -2.7630000
  26.5297893 105.6393572  -2.3978495  26.0110000 107.7190000  -2.4190000
  25.4285584 107.9860515  -3.3007849  25.3375816 107.4131941  -1.6183187
  26.6840000 108.9690000  -1.9570000  26.5160000 109.4610000  -0.6790000
  27.2240000 110.5660000  -0.5390000  27.2258658 111.1095705   0.4057892
  27.8450000 110.8100000  -1.6830000  28.4584069 111.5895260  -1.8731866
  27.5210000 109.8250000  -2.5830000  27.9355761 109.8497480  -3.5907775
  27.0980000 106.4230000  -4.2780000  28.1960000 106.2430000  -4.8050000
  25.9940000 106.5270000  -5.0120000  25.1413487 106.8360115  -4.5674812
  25.9460000 106.1660000  -6.4270000  26.9549635 105.9723556  -6.7911342
  25.0970000 104.9020000  -6.6370000  25.0144190 104.4012863  -5.6723418
  24.1072956 105.2158809  -6.9687589  25.6900000 103.9470000  -7.6520000
  25.6210000 104.2370000  -8.8650000  26.2220000 102.8990000  -7.2270000
  25.3880000 107.3040000  -7.2810000  24.9320000 108.3210000  -6.7920000
  25.3540000 107.0800000  -8.5810000  25.4766884 106.1388006  -8.9262398
  25.1870000 108.1570000  -9.5520000  25.6947685 109.0607490  -9.2150904
  25.7990000 107.7200000 -10.8790000  25.8097159 106.6301410 -10.8928457
  25.1664223 108.0869102 -11.6872837  27.2040000 108.2390000 -11.0650000
  27.8370000 108.6640000 -10.0710000  27.6580000 108.2240000 -12.2200000
  23.7200000 108.5170000  -9.7350000  22.8930000 107.6620000 -10.0780000
  23.4160000 109.8000000  -9.5550000  24.1727898 110.4487160  -9.3921009
  22.0470000 110.3080000  -9.5120000  22.0604976 111.3938324  -9.4177392
  21.2960000 109.9390000 -10.7860000  21.3301637 108.8550362 -10.8953374
  20.2615494 110.2585000 -10.6597794  21.8770000 110.5890000 -12.0230000
  22.1160000 111.8130000 -12.0790000  22.1330000 109.8840000 -13.0180000
  21.2810000 109.8060000  -8.2940000  20.0460000 109.8050000  -8.3160000
  21.9980000 109.3690000  -7.2400000  23.0070675 109.3907172  -7.2775566
  21.3630000 108.8520000  -6.0360000  20.4594070 108.3110066  -6.3169717
  22.2800000 107.9030000  -5.2600000  22.5166761 107.0455451  -5.8899641
  23.1992546 108.4297212  -5.0038051  21.6460000 107.4570000  -4.0750000
  22.2338106 106.8639132  -3.6013687  20.9790000 109.9800000  -5.1100000
  21.7940000 110.8520000  -4.7980000  19.7530000 109.9130000  -4.6030000
  19.1638964 109.1400239  -4.8778894  19.1830000 110.9460000  -3.7410000
  19.7318713 111.8779115  -3.8765743  17.6730000 111.1870000  -4.0300000
  17.1356296 110.2476631  -3.8996942  17.1030000 112.2310000  -3.0860000
  17.6395975 113.1708123  -3.2160641  16.0464388 112.3829199  -3.3066795
  17.2132401 111.8897122  -2.0566949  17.4690000 111.6360000  -5.4820000
  17.9163221 112.6258253  -5.5728277  18.0147573 110.9321671  -6.1103851
  16.0040000 111.6940000  -5.9330000  15.4576706 112.3980275  -5.3053302
  15.9557344 112.0208745  -6.9717121  15.5561050 110.7043691  -5.8428853
  19.4440000 110.5310000  -2.3030000  18.9880000 109.4660000  -1.8810000
  20.2230000 111.3310000  -1.5850000  20.6620416 112.1309039  -2.0180075
  20.5380000 111.0400000  -0.2020000  20.0828156 110.0945998   0.0931690
  22.0530000 110.9310000  -0.0200000  22.4980758 111.8638443  -0.3661333
  22.2525787 110.8067677   1.0443471  22.6540000 109.7720000  -0.7840000
  22.2854936 109.8421226  -1.8074191  23.7430183 109.8182027  -0.7865440
  22.2280000 108.4400000  -0.2070000  23.0400000 107.7210000   0.4370000
  20.9580000 108.0600000  -0.4800000  20.6097311 107.1809938  -0.1248123
  20.3642756 108.6571506  -1.0376772  19.9430000 112.0780000   0.7580000
  19.3300000 113.0930000   0.3420000  20.0370000 111.7440000   2.0590000
  20.3701500 110.8222121   2.3027569  19.6480000 112.6480000   3.1390000
  19.5378823 113.6722838   2.7828876  18.3710000 112.2490000   3.8840000
  18.2999425 112.7981471   4.8228757  17.1640000 112.5920000   2.9980000
  17.2341215 112.0428358   2.0590631  16.2441892 112.3144804   3.5128120
  17.1559769 113.6624271   2.7925175  18.4500000 110.7940000   4.2820000
  19.3111951 110.6409335   4.9323965  17.5403171 110.5118700   4.8120749
  18.5555792 110.1777645   3.3891351  20.7860000 112.7120000   4.1330000
  21.1570000 111.7000000   4.7700000  21.3070000 113.9170000   4.2990000
  20.7632758 114.7066410   3.9813044  22.6240000 114.1690000   4.8650000
  22.9594461 113.3388797   5.4866715  23.6550000 114.4260000   3.7540000
  23.4964289 115.4146916   3.3233672  25.0690000 114.3520000   4.3630000
  25.2284897 113.3633765   4.7934500  25.8103230 114.5327014   3.5846119
  25.1695538 115.1075154   5.1422205  23.4550000 113.4160000   2.6090000
  22.3806864 113.2492020   2.5307092  23.8133637 113.9041750   1.7027108
  24.1820000 112.0470000   2.7840000  23.8237931 111.5579879   3.6899000
  23.9744581 111.4120900   1.9226552  25.2564709 112.2129614   2.8619039
  22.3520000 115.3630000   5.7610000  21.7380000 116.3550000   5.3070000
  22.7470000 115.3090000   7.0250000  23.1910000 114.2160000   7.8450000
  24.0007458 113.7144043   7.3150814  22.3527103 113.5289777   7.9606272
  23.6380000 114.8070000   9.1630000  24.6882881 115.0956578   9.1221271
  23.4882426 114.0970413   9.9764081  22.7270000 116.0300000   9.3290000
  23.2073873 116.8143086   9.9139676  21.7485487 115.8075453   9.7547306
  22.5740000 116.4820000   7.8860000  21.5596994 116.8649715   7.7736374
  23.5650000 117.5580000   7.4960000  24.6940000 117.2750000   7.0940000
  23.1140000 118.8030000   7.6130000  22.1269288 118.9371217   7.7797366
  23.9540000 119.9790000   7.4690000  24.9015065 119.7939172   6.9629616
  23.2070000 121.0910000   6.7200000  22.3598528 121.4049419   7.3298208
  24.0980000 122.2810000   6.4450000  24.9451881 121.9679132   5.8347952
  23.5307806 123.0451300   5.9135228  24.4613449 122.6891496   7.3881310
  22.6010000 120.4640000   5.4660000  21.9143408 119.6675678   5.7528746
  22.0595242 121.2249696   4.9040135  23.3960538 120.0513687   4.8449318
  24.3650000 120.4210000   8.8660000  23.5160000 120.4780000   9.8020000
  25.6820000 120.7010000   9.0180000  26.3248029 120.4965525   8.2662654
  26.2200000 121.3400000  10.2550000  25.7142931 120.9346698  11.1313944
  27.6970000 121.0710000  10.3840000  28.1594613 121.4347623   9.4664458
  28.0588418 121.6562268  11.2293876  28.0620000 119.5970000  10.5900000
  27.6020980 119.0111708   9.7941388  29.5420000 119.3950000  10.5650000
  30.0025902 119.9801949  11.3609287  29.7676698 118.3390637  10.7139039
  29.9371125 119.7181499   9.6019005  27.5020000 119.1300000  11.9680000
  26.4183996 119.2474175  11.9790821  27.7550060 118.0817950  12.1272341
  27.9405113 119.7338191  12.7624868  26.0310000 122.8300000  10.1710000
  26.6010000 123.4820000   9.2770000  25.3450000 123.4440000  11.1120000
  24.9190000 122.8960000  12.3150000  25.7661983 122.3938892  12.7821618
  24.1374073 122.1667124  12.1020409  24.4120000 124.0620000  13.1330000
  25.2181178 124.5048057  13.7179755  23.6099809 123.7470379  13.8005819
  23.8890000 125.0380000  12.0710000  23.8576165 126.0990906  12.3183879
  22.8948191 124.7055073  11.7724158  24.8770000 124.8000000  10.9400000
  24.3056610 124.7849948  10.0118595  25.9130000 125.9200000  10.8810000
  25.5630000 127.0610000  10.5070000  27.1170000 125.7000000  11.3320000
  27.4403999 124.7941773  11.6402158  28.0230000 126.8330000  11.4500000
  27.4671760 127.7632974  11.3329291  28.7040000 126.8380000  12.8270000
  29.2443812 125.8970251  12.9302165  29.4121842 127.6664833  12.8408044
  27.7130000 126.9910000  13.9950000  27.1638249 127.9264842  13.8883378
  27.0152480 126.1544179  13.9579249  28.4110000 126.9860000  15.3580000
  28.5680000 128.0420000  15.9820000  28.8140000 125.8070000  15.8360000
  29.2784564 125.7607380  16.7316794  28.6526989 124.9663589  15.2998976
  29.0760000 126.8190000  10.3490000  29.8400000 127.7920000  10.2040000
  29.2150000 125.7000000   9.6190000  28.6629428 124.8845867   9.8435735
  30.2470000 125.5830000   8.5440000  31.1991561 126.0384873   8.8160833
  30.5060000 124.1250000   8.0990000  31.3578179 124.1233457   7.4189244
  30.7980000 123.2090000   9.2800000  29.9463851 123.2097751   9.9603325
  30.9735424 122.1953933   8.9196019  31.6833736 123.5652621   9.8065858
  29.3930000 123.5350000   7.2360000  29.2782598 124.1325726   6.3316529
  29.6476516 122.5106325   6.9641113  28.4574603 123.5400376   7.7953219
  29.7830000 126.4880000   7.3990000  28.5970000 126.3700000   7.0400000
  30.6260000 127.4140000   6.9200000  31.5069744 127.5565819   7.3929206
  30.2910000 128.2870000   5.8160000  29.3934859 127.9159807   5.3211138
  30.0320000 129.7030000   6.2910000  29.7128941 130.2862907   5.4272624
  29.2229268 129.6622919   7.0202760  31.2190000 130.3410000   6.9060000
  31.7156680 129.5757223   7.5024660  31.8730816 130.6454316   6.0889316
  30.8760000 131.7380000   7.9250000  30.9510000 130.8900000   9.4520000
  31.9405799 130.4500701   9.5756621  30.7604449 131.5891762  10.2662125
  30.1988001 130.1012950   9.4675217  31.3690000 128.2530000   4.7430000
  31.4430000 129.1640000   3.9260000  32.1080000 127.1330000   4.6720000
  31.8712193 126.3587718   5.2758253  33.2600000 126.9780000   3.7470000
  33.5577181 127.9447322   3.3409311  34.4440000 126.3860000   4.5210000
  34.6780345 127.0839684   5.3248453  34.1039077 125.4422964   4.9474514
  35.6910000 126.1430000   3.6810000  35.4075893 125.5360349   2.8211322
  36.0616217 127.1086548   3.3371215  37.0010000 125.2960000   4.6020000
  36.8970000 123.6530000   3.8920000  37.0817630 123.7078713   2.8191763
  37.6432074 123.0081484   4.3561568  35.9027085 123.2426715   4.0683981
  32.9350000 126.0490000   2.5720000  32.5130000 124.9140000   2.8440000
  33.1340000 126.4960000   1.3270000  33.3363874 127.4770946   1.1981896
  33.0310000 125.6490000   0.1420000  32.0678787 125.1393495   0.1145621
  33.2000000 126.4950000  -1.1330000  34.0578972 127.1517384  -0.9887517
  33.4210000 125.6280000  -2.3960000  32.5632451 124.9712801  -2.5411762
  33.5341450 126.2747474  -3.2660671  34.3214636 125.0265406  -2.2714567
  31.9910000 127.3960000  -1.3780000  31.2015338 126.7567909  -1.7732919
  31.6901791 127.7845308  -0.4050406  32.2330000 128.5630000  -2.3410000
  32.5334279 128.1752098  -3.3143764  31.3158957 129.1421878  -2.4485190
  33.0220753 129.2029488  -1.9461258  34.0900000 124.5630000   0.2220000
  35.2850000 124.8360000   0.3810000  33.6640000 123.3290000   0.0160000
  32.6859102 123.2564320  -0.2251918  34.4490000 122.1080000   0.0850000
  35.4890713 122.3519145   0.3014640  33.9220000 121.1860000   1.1900000
  33.8621389 121.8209319   2.0739555  32.9252753 120.8278607   0.9323641
  34.8270000 120.0000000   1.4790000  35.0737227 119.4983431   0.5432815
  36.1090000 120.4790000   2.1520000  35.8631008 120.9803872   3.0880787
  36.7537352 119.6242961   2.3566912  36.6277293 121.1751525   1.4929158
  34.0930000 118.9670000   2.3380000  33.2070140 118.6168670   1.8083444
  34.7539688 118.1233560   2.5367118  33.7946736 119.4242467   3.2814118
  34.3620000 121.3470000  -1.2370000  33.4160000 121.4900000  -1.9980000
  35.3210000 120.4610000  -1.4620000  35.8424917 120.1404649  -0.6586302
  35.6660000 119.9150000  -2.7770000  34.8256371 119.8190399  -3.4645180
  36.7720000 120.7610000  -3.4610000  37.5328497 120.9880282  -2.7142302
  37.4110000 120.0400000  -4.6290000  36.6507968 119.8130313  -5.3764472
  38.1780599 120.6746532  -5.0727734  37.8648249 119.1125133  -4.2798395
  36.2070000 122.1160000  -3.8340000  35.8613723 122.6261283  -2.9348823
  36.9815763 122.7133140  -4.3149857  35.3708924 121.9850094  -4.5209253
  36.1680000 118.5030000  -2.5040000  36.9930000 118.2920000  -1.5690000
  35.7570000 117.4710000  -3.2830000  34.9830000 117.5130000  -4.4900000
  35.5890242 117.9623773  -5.2766988  34.1000136 118.1280034  -4.3162046
  34.6330000 116.0700000  -4.7790000  34.4494901 115.9214053  -5.8431160
  33.7531156 115.7642757  -4.2129280  35.8770000 115.3040000  -4.3130000
  36.6907997 115.2925967  -5.0380511  35.6400685 114.2819452  -4.0174207
  36.2830000 116.1160000  -3.0930000  35.7753331 115.6801585  -2.2325264
  37.8030000 116.0900000  -2.8580000  38.5100000 116.6080000  -3.7050000
  38.2710000 115.5040000  -1.7480000  37.5957723 115.1060410  -1.1109792
  39.7060000 115.4050000  -1.4010000  39.8519205 114.4887664  -0.8288791
  40.2740203 115.3473021  -2.3295059  40.2120000 116.5860000  -0.5830000
  41.4150000 116.5740000  -0.2580000  39.3530000 117.5530000  -0.2360000
  38.4089862 117.4948917  -0.5903453  39.7330000 118.7480000   0.5700000
  40.8059172 118.9208385   0.4858881  38.9950000 119.9970000   0.0730000
  39.2042718 120.0947235  -0.9922486  37.9288984 119.8230584   0.2188481
  39.4030000 121.2780000   0.7900000  39.1276930 121.1922551   1.8411683
  40.4846482 121.3829869   0.7056372  38.7520000 122.5160000   0.2200000
  38.0150000 122.4650000  -0.7620000  39.0160000 123.6530000   0.8440000
  38.6096941 124.5151223   0.5096915  39.6225404 123.6532592   1.6515952
  39.4460000 118.4360000   2.0410000  38.3240000 118.0700000   2.3390000
  40.4100000 118.6000000   2.9450000  41.2900689 118.9919727   2.6417915
  40.2640000 118.2260000   4.3590000  39.6992499 117.2962139   4.4272221
  41.6310000 118.0210000   5.0320000  42.2126713 118.9335527   4.9015919
  41.5000000 117.7050000   6.5390000  40.9188030 116.7922579   6.6701926
  42.4919472 117.5685550   6.9697234  40.9967154 118.5309802   7.0415553
  42.3260000 116.9260000   4.4190000  43.1771670 116.8075126   4.8468736
  39.5040000 119.3100000   5.1340000  39.6120000 120.5120000   4.8510000
  38.7280000 118.8810000   6.1280000  38.5371258 117.9081091   6.3207428
  38.0530000 119.8940000   6.9390000  38.5637203 120.8530523   6.8524976
  36.6190000 120.0590000   6.4450000  36.7638806 120.6326640   5.5295665
  36.2896310 119.0509358   6.1931613  35.5600000 120.7390000   7.3090000
  35.5561883 120.2755411   8.2955557  35.8570000 122.2140000   7.4470000
  35.8605224 122.6782667   6.4608241  35.0920490 122.6828262   8.0659934
  36.8329949 122.3465080   7.9138790  34.1430000 120.5630000   6.7510000
  33.9015302 119.5013358   6.6994164  33.4297463 121.0660002   7.4039635
  34.0887993 120.9963489   5.7523159  38.0920000 119.5380000   8.4170000
  37.5800000 118.4790000   8.7920000  38.7400000 120.3880000   9.2890000
  39.9870000 120.9540000   8.9020000  39.7757404 121.8104378   8.2617001
  40.5288674 120.1995268   8.3316940  40.7070000 121.3430000  10.1730000
  40.4375338 122.3545947  10.4765838  41.7870679 121.2794935  10.0406303
  40.2180000 120.3040000  11.1900000  40.2246458 120.6700215  12.2166855
  40.7705001 119.3659761  11.1356455  38.7860000 120.0900000  10.7270000
  38.5574495 119.0332391  10.8652725  37.7890000 120.9310000  11.5120000
  37.6320000 122.1360000  11.2470000  37.1480000 120.3270000  12.5040000
  37.2968333 119.3632214  12.7668284  36.1660000 121.0990000  13.2450000
  36.3044492 122.1630292  13.0532376  34.7350000 120.6980000  12.8030000
  34.5964431 119.6373927  13.0127937  34.0316536 121.2804664  13.3980939
  34.4860000 120.9590000  11.3250000  35.3788004 120.7679691  10.7295880
  33.4170000 120.0080000  10.9320000  32.5236638 120.1987305  11.5267025
  33.1841148 120.1387975   9.8752326  33.7568073 118.9868642  11.1049538
  34.0390000 122.3610000  11.0730000  34.8062351 123.0548300  11.4165836
  33.8728207 122.5035449  10.0052141  33.1111277 122.5496749  11.6129571
  36.2350000 120.9210000  14.7440000  36.4570000 119.8010000  15.2250000
  35.9560000 122.0260000  15.4770000  35.9429949 122.9205944  15.0083518
  35.7340000 121.9970000  16.9420000  35.8852448 120.9857284  17.3195631
  36.7100000 122.9290000  17.6440000  37.2368280 123.4618075  16.8523766
  36.0982643 123.6318861  18.2095356  37.6860000 122.2970000  18.5420000
  37.2094645 121.7614900  19.3631235  38.2541164 121.5946518  17.9320386
  38.6490000 123.3260000  19.1250000  39.6410000 123.7120000  18.4630000
  38.3310000 123.8420000  20.3340000  38.9369323 124.5270998  20.7624691
  37.4890196 123.5399223  20.8029558  34.2740000 122.3750000  17.2630000
  33.8870000 123.5530000  17.2380000  33.4740000 121.3720000  17.5990000
  33.8187872 120.4230645  17.5717499  32.0770000 121.5900000  17.9560000
  31.7145646 122.5139202  17.5053213  31.2290000 120.4370000  17.4480000
  31.4790669 119.5467114  18.0250198  30.1673351 120.6564066  17.5612627
  31.5430000 120.1930000  15.9760000  32.5829206 120.4463887  15.7699415
  31.3150000 118.7530000  15.6770000  30.2751086 118.4989533  15.8823901
  31.5350324 118.5601307  14.6270058  31.9676369 118.1437768  16.3023099
  30.6860000 121.0540000  15.1090000  30.8712091 122.1027729  15.3411044
  30.9235892 120.8667144  14.0618244  29.6364149 120.8222253  15.2899713
  31.9520000 121.7470000  19.4650000  32.1770000 120.7980000  20.2210000
  31.5830000 122.9540000  19.8840000  31.4274041 123.6422864  19.1613998
  31.4240000 123.3610000  21.2670000  31.9880498 122.7078296  21.9328194
  31.9680000 124.8030000  21.4110000  32.0789402 125.2906472  20.4425003
  31.2660421 125.3686246  22.0237184  33.3150000 124.8940000  22.0990000
  34.4470000 124.3840000  21.5040000  34.3758153 123.9048245  20.5275660
  35.6720000 124.4780000  22.1410000  36.5574433 124.0671506  21.6559293
  35.7820000 125.0930000  23.3960000  36.7477553 125.1421619  23.8989908
  34.6760000 125.6310000  23.9880000  34.7382055 126.1257146  24.9572719
  33.4510000 125.5390000  23.3300000  32.5587093 125.9789090  23.7754182
  29.9630000 123.3030000  21.7370000  29.6780000 123.7370000  22.8460000
  28.9930000 123.0190000  20.8540000  29.2584330 122.6903791  19.9365836
  27.5370000 123.1970000  21.1500000  27.4000176 123.7536834  22.0770591
  26.8910000 123.9820000  20.0090000  27.2351299 125.0153514  20.0521129
  27.1699511 123.5464289  19.0495396  25.4000000 124.0270000  20.0400000
  24.6920000 124.5120000  21.1230000  23.4030000 124.4300000  20.8770000
  22.6712540 124.7574008  21.6155495  23.2450000 123.9150000  19.6610000
  22.3655606 123.7341076  19.1984374  24.4770000 123.6650000  19.1270000
  24.5615263 123.2440580  18.1251196  26.7830000 121.8880000  21.3320000
  26.6960000 121.2460000  20.3660000  26.0660000 121.5790000  22.4420000
  25.6960000 122.4750000  23.4100000  24.9258820 123.1315989  23.0051587
  26.5664886 123.0674177  23.6917623  25.1890000 121.6180000  24.5480000
  24.4760586 122.1696869  25.1607440  26.0144371 121.2750308  25.1718006
  24.5180000 120.4400000  23.8320000  23.4847276 120.5090779  23.4918891
  24.6190398 119.5980087  24.5167928  25.4430000 120.2530000  22.6400000
  26.2777242 119.6367732  22.9740634  24.6930000 119.5290000  21.5040000
  24.8900000 118.3560000  21.3720000  23.8240000 120.2110000  20.7600000
  23.6299848 121.1773002  20.9807293  23.0940000 119.5860000  19.6200000
  22.5875869 118.6855233  19.9675437  22.0520000 120.5360000  19.0320000
  21.9041249 121.3423518  19.7503515  22.4660996 120.9432210  18.1096158
  20.7170000 119.8690000  18.7370000  20.9085749 118.8995479  18.2770408
  20.1630892 119.7271800  19.6649935  19.8750000 120.6920000  17.7940000
  20.3790000 121.5300000  17.0510000  18.5740000 120.4680000  17.8290000
  17.9584915 120.9885703  17.2205123  18.2005227 119.7771497  18.4640921
  24.0530000 119.1670000  18.5060000  23.8680000 118.0770000  17.9570000
  25.0220000 120.0200000  18.1740000  25.0954454 120.9141488  18.6378999
  26.0380000 119.6730000  17.1520000  25.5413498 119.4332995  16.2117971
  26.9980000 120.8370000  16.9140000  27.2440498 121.2449018  17.8943953
  27.8951078 120.4148855  16.4611015  26.4590000 121.9390000  16.0310000
  26.2091065 121.5184716  15.0569313  25.5548371 122.3235127  16.5029518
  27.4560000 123.0690000  15.8530000  28.1510000 123.3950000  16.8310000
  27.5460000 123.6080000  14.7350000  26.8310000 118.4940000  17.7040000
  27.0970000 117.5610000  16.9510000  27.1770000 118.5540000  18.9880000
  26.9837269 119.3658103  19.5569543  27.9430000 117.4580000  19.5810000
  28.7716705 117.2060055  18.9192575  28.5110000 117.8520000  20.9490000
  27.6855470 118.1502945  21.5953335  29.2560000 116.7040000  21.5830000
  30.0819427 116.4054307  20.9374181  29.6468420 117.0147023  22.5519206
  28.5783782 115.8610455  21.7184923  29.4900000 119.0120000  20.8280000
  28.9794925 119.8761247  20.4028262  29.8751152 119.2675702  21.8151524
  30.3171809 118.7238428  20.1792796  27.0860000 116.1860000  19.6810000
  27.6390000 115.0840000  19.7190000  25.7700000 116.2600000  19.5280000
  25.2660004 117.1339103  19.4793736  24.9880000 114.9920000  19.5150000
  25.4848897 114.2581941  20.1496091  23.5840000 115.1970000  20.0240000
  23.1659204 116.0831458  19.5464497  22.9860054 114.3253206  19.7581474
  23.5700000 115.3680000  21.4320000  22.6664198 115.4963423  21.7297765
  24.9720000 114.3830000  18.1090000  25.2370000 113.1810000  17.9980000
  24.6670000 115.1860000  17.0900000  24.5150190 116.1649781  17.2864762
  24.5560000 114.7240000  15.6800000  23.7678405 113.9791285  15.5701353
  24.2040000 115.9370000  14.8220000  23.1532435 116.1507580  15.0177486
  24.8167157 116.7581531  15.1940042  24.4170000 115.7840000  13.3390000
  25.4318659 115.4416501  13.1366525  23.7042069 115.0697257  12.9268832
  24.1660000 117.3910000  12.5570000  24.0110000 118.4430000  13.9990000
  24.9232870 118.3835121  14.5925424  23.8509159 119.4735417  13.6820497
  23.1643633 118.1128604  14.6009264  25.8840000 114.1430000  15.2130000
  25.8860000 113.0840000  14.5850000  26.9720000 114.8200000  15.5380000
  26.8997233 115.7158088  15.9988708  28.3180000 114.3450000  15.1300000
  28.3629600 114.0290353  14.0877697  29.3720000 115.4410000  15.3570000
  29.3033435 115.7623890  16.3962760  30.7840000 114.9610000  15.0680000
  30.8535619 114.6398567  14.0287074  31.4880027 115.7742553  15.2443420
  31.0250302 114.1239804  15.7232895  29.0420000 116.6700000  14.5290000
  28.0635219 117.0524663  14.8195207  29.7969244 117.4374172  14.7000543
  29.0282875 116.4037397  13.4721091  28.6260000 113.0410000  15.8670000
  29.2660000 112.1650000  15.2700000  28.1350000 112.8940000  17.0960000
  27.6707734 113.6425698  17.5902026  28.3450000 111.5890000  17.8130000
  29.3919973 111.2962892  17.7341568  27.9790000 111.7060000  19.2990000
  28.1369566 112.7453626  19.5868790  26.9205110 111.4616262  19.3883453
  28.7870000 110.7990000  20.2130000  28.4445411 109.7724024  20.0829223
  29.8392819 110.8681309  19.9372724  28.6170000 111.2080000  21.6620000
  27.5670703 111.4417804  21.8383328  28.9147861 110.3742137  22.2977855
  29.4230000 112.3770000  22.0140000  30.1649333 112.6017637  21.3666086
  29.2570000 113.1550000  23.0900000  28.3010000 112.9190000  23.9760000
  27.6774375 112.1353698  23.8448759  28.2000406 113.5237743  24.7785926
  30.0700000 114.1810000  23.2810000  30.8066405 114.3683115  22.6158870
  29.9502991 114.7722584  24.0910518  27.5350000 110.4670000  17.1390000
  28.1290000 109.4100000  16.8730000  26.2210000 110.6320000  16.9530000
  25.7840960 111.3943045  17.4511024  25.3620000 109.7110000  16.1970000
  25.4184888 108.6959886  16.5902685  23.9150000 110.2200000  16.3530000
  23.7397626 110.4463618  17.4047373  23.8252537 111.1336525  15.7653907
  22.8670000 109.2460000  15.8900000  23.0150000 108.0180000  15.9490000
  21.7580000 109.8020000  15.4230000  21.0042700 109.2170064  15.0916795
  21.6718478 110.8080711  15.4006475  25.8320000 109.5420000  14.7540000
  25.4390000 108.5600000  14.1210000  26.7040000 110.4070000  14.2190000
  26.9845359 111.2649487  14.6721258  27.2330000 110.1220000  12.8860000
  26.4227556 109.7986752  12.2324985  27.8750000 111.3510000  12.2870000
  28.2002574 111.9255242  13.1543113  28.7475366 111.0084060  11.7307543
  27.0120000 112.2330000  11.3870000  26.2509660 112.7656244  11.9572976
  27.9880000 113.2470000  10.7620000  28.7491097 112.7151086  10.1911214
  27.4408565 113.9181480  10.0999614  28.4658524 113.8264964  11.5518996
  26.2460000 111.5310000  10.3100000  25.5670800 110.8064104  10.7595965
  25.6718387 112.2597207   9.7378057  26.9403563 111.0148253   9.6470279
  28.2450000 108.9750000  12.9200000  28.1270000 108.0120000  12.1420000
  29.1940000 109.0490000  13.8720000  29.2680295 109.9004077  14.4102601
  30.2490000 108.0080000  14.0460000  30.8467491 107.8928396  13.1418245
  31.1830000 108.3000000  15.2490000  30.6412043 108.9395762  15.9457784
  31.6300000 107.0330000  15.9660000  32.1723075 106.3930842  15.2699318
  32.2814848 107.2969457  16.7990672  30.7566018 106.5008287  16.3429198
  32.4050000 109.1270000  14.8260000  33.0366964 109.2242899  15.7089469
  32.9285028 108.5446994  14.0677320  32.0910000 110.4980000  14.2790000
  31.5678667 111.0810870  15.0369189  33.0183425 111.0030635  14.0087298
  31.4596709 110.4014963  13.3957048  29.5550000 106.6430000  14.0720000
  30.0980000 105.7060000  13.4710000  28.3680000 106.5560000  14.6600000
  28.0018611 107.3652083  15.1408572  27.5930000 105.2950000  14.7170000
  28.2549192 104.4709025  14.9831304  26.4790000 105.3850000  15.7630000
  25.7919197 106.1548345  15.4117526  25.9751066 104.4184878  15.7562480
  26.9290000 105.7150000  17.1870000  27.6205050 106.5547057  17.1176027
  26.0614632 106.0073592  17.7786148  27.6270000 104.5710000  17.8860000
  27.0520000 103.8950000  18.7350000  28.8890000 104.3600000  17.5540000
  29.4038824 103.6085309  17.9902244  29.3325260 104.9512264  16.8656415
  27.0360000 104.9540000  13.3210000  27.0920000 103.7670000  12.9920000
  26.5350000 105.9230000  12.5370000  26.4190475 106.8338833  12.9576494
  25.9480000 105.6880000  11.1820000  25.5880863 104.6632241  11.0903716
  24.7630000 106.6430000  10.9880000  24.1559587 106.6282761  11.8931980
  25.1535467 107.6481918  10.8293724  23.8840000 106.2730000   9.8090000
  23.0500000 105.3790000   9.9140000  24.0600000 106.9500000   8.6890000
  23.4956788 106.7359890   7.8791601  24.7581224 107.6786928   8.6473748
  27.0110000 105.6860000  10.0590000  27.7510000 104.6830000  10.0250000
  27.1310000 106.7150000   9.1880000  26.5416706 107.5169047   9.3604499
  28.0050000 106.7230000   7.9660000  28.4827318 105.7512640   7.8410975
  27.1570000 107.0180000   6.7170000  27.8715252 107.0038806   5.8939850
  26.4682152 106.1795209   6.6139064  26.3750000 108.3230000   6.6870000
  26.2490000 108.9840000   7.7350000  25.8710000 108.6620000   5.5970000
  29.1780000 107.7180000   8.0380000  29.9980000 107.6570000   7.0970000
  29.2740000 108.5870000   9.0540000  28.5020524 108.5390058   9.7035327
  30.3080000 109.5870000   9.2830000  30.1103898 110.0879163  10.2306984
  31.7100000 108.9730000   9.3370000  31.6927962 108.1007286   8.6835890
  32.3919918 109.7188150   8.9286532  32.1870000 108.5550000  10.7360000
  32.7694555 109.3610524  11.1822353  31.3263432 108.3363507  11.3681110
  33.0670000 107.2930000  10.6110000  33.5692943 107.1230427  11.5633203
  32.4251475 106.4421879  10.3824316  34.0830000 107.4120000   9.5580000
  34.8603064 108.0236744   9.7623247  34.0540000 106.7900000   8.3730000
  33.0710000 105.9570000   8.0390000  32.3192998 105.7808986   8.6901798
  33.0813232 105.5048520   7.1359190  35.0410000 107.0030000   7.4990000
  35.7971020 107.6284086   7.7383199  35.0268511 106.5377111   6.6026715
  30.2970000 110.6790000   8.2150000  31.2900000 111.4260000   8.0580000
  29.1850000 110.8100000   7.5150000  28.3665814 110.2966524   7.8095581
  29.0900000 111.6290000   6.3250000  29.9921584 112.2078484   6.1271518
  28.8060000 110.7340000   5.1120000  27.8267499 110.2662995   5.2141064
  28.8260000 111.5960000   3.8670000  29.8051527 112.0636995   3.7639626
  28.6258215 110.9768674   2.9925273  28.0614417 112.3687399   3.9471512
  29.7800000 109.6800000   5.0990000  29.6206149 109.1062937   4.3459676
  28.0000000 112.6650000   6.4730000  26.8360000 112.3190000   6.7100000
  28.3800000 113.9250000   6.3040000  29.3579855 114.1389136   6.1702662
  27.4370000 115.0150000   6.3120000  26.4240773 114.6125315   6.3017066
  27.5990000 115.8880000   7.5410000  26.9818361 116.7850647   7.4911717
  27.3232797 115.3063225   8.4206190  29.0000000 116.3460000   7.7550000
  29.9930000 115.4780000   8.1310000  29.7453191 114.4276422   8.2843057
  31.3350000 115.9310000   8.3220000  32.1141363 115.2230148   8.6044966
  31.6440000 117.2630000   8.1490000  32.6577834 117.6368711   8.2923996
  30.6350000 118.1290000   7.7860000  30.8492023 119.1936946   7.6930325
  29.3360000 117.6480000   7.5360000  28.5684372 118.3228986   7.1572401
  27.6670000 115.8480000   5.0760000  28.6210000 115.6240000   4.3340000
  26.7930000 116.8460000   4.8960000  26.1179624 117.0180499   5.6273155
  26.7410000 117.6720000   3.7030000  27.3142895 117.1762326   2.9196399
  25.2890000 117.8630000   3.2070000  24.7046796 118.3664907   3.9771733
  25.2909067 118.4673458   2.2998821  24.8463781 116.8900000   2.9937957
  27.3490000 119.0420000   3.9460000  26.9290000 119.7370000   4.8710000
  28.2500000 119.4830000   3.0540000  28.5987865 118.8596003   2.3399832
  28.8230000 120.8160000   3.1450000  28.4628068 121.3227762   4.0402865
  30.3570000 120.8130000   3.1670000  30.7343964 120.4490749   2.2113695
  30.8820000 122.2840000   3.4150000  30.5053679 122.6484604   4.3707289
  31.9718842 122.2835100   3.4308971  30.5311135 122.9353509   2.6145487
  30.8600000 119.8960000   4.2040000  30.5086082 118.8851078   3.9973050
  31.9499277 119.9085149   4.2031686  30.4942434 120.2147702   5.1800679
  28.2870000 121.6680000   2.0100000  28.6700000 121.5050000   0.8470000
  27.4360000 122.6030000   2.3760000  27.2410698 122.7357018   3.3580854
  26.7500000 123.4270000   1.4320000  26.3436428 122.8158522   0.6261021
  25.6010000 124.1530000   2.1190000  26.1373868 124.6333469   2.9373247
  25.2214002 124.9143970   1.4376200  24.4310000 123.3440000   2.6820000
  24.8613379 122.5754782   3.3240937  23.4260000 124.1440000   3.4630000
  22.9948620 124.9124801   2.8213948  22.6352697 123.4847615   3.8211214
  23.9181476 124.6156323   4.3135611  23.7670000 122.5850000   1.5470000
  24.4910759 121.9133265   1.0858403  22.9310839 122.0045745   1.9374508
  23.4014683 123.2914278   0.8017179  27.7000000 124.4310000   0.8210000
  28.4990000 125.0540000   1.5290000  27.5280000 124.6670000  -0.4960000
  26.9186546 124.0676562  -1.0341305  28.2590000 125.7150000  -1.1950000
  29.1468115 125.9525402  -0.6089414  28.7000000 125.2450000  -2.5810000
  27.8215396 125.0120257  -3.1827726  29.2739919 126.0338624  -3.0671375
  29.3193953 124.3534744  -2.4828634  27.4330000 126.9840000  -1.2930000
  26.8930000 127.3570000  -2.3370000  27.4650000 127.7430000  -0.2290000
  28.1047106 127.5822789   0.5358780  26.5350000 128.8540000  -0.1270000
  25.5244313 128.4985993  -0.3283464  26.5640000 129.4800000   1.2680000
  27.5945806 129.8081645   1.4033177  25.9063866 130.3490099   1.2464041
  26.1760000 128.5950000   2.3920000  24.8220000 128.2640000   2.6380000
  24.0548452 128.6625856   1.9741457  24.4640000 127.4490000   3.7000000
  23.4198342 127.1759915   3.8525976  25.4450000 126.9700000   4.5700000
  25.1190000 126.1670000   5.6730000  24.1770791 125.9975338   5.7482721
  26.8150000 127.3100000   4.3420000  27.5898941 126.9512893   5.0194705
  27.1600000 128.1080000   3.2420000  28.2055320 128.3492433   3.0502592
  26.8510000 129.9410000  -1.1330000  27.9760000 130.4290000  -1.1950000
  25.8120000 130.3980000  -1.8210000  24.9412574 129.8878949  -1.7797748
  25.8880000 131.5620000  -2.6870000  26.8403869 131.5858433  -3.2166130
  24.7570000 131.4840000  -3.7170000  23.8035939 131.3800400  -3.1990151
  24.7483180 132.3963601  -4.3133419  24.9580000 130.3630000  -4.5690000
  24.2469164 130.3185321  -5.2124148  25.8250000 132.8610000  -1.8920000
  26.6780000 133.7360000  -2.0740000  24.8110000 133.0160000  -1.0290000
  24.1099735 132.2951968  -0.9335852  24.6450000 134.2510000  -0.2620000
  25.2222087 135.0502143  -0.7269578  23.1700000 134.6740000  -0.2160000
  22.7086952 134.5180203  -1.1911756  22.6680229 134.0533826   0.5262621
  22.9980000 136.1380000   0.1760000  21.9470000 136.5310000   0.6750000
  24.0370000 136.9390000  -0.0240000  23.9711693 137.9168957   0.2198979
  24.8888023 136.5670351  -0.4191907  25.1880000 134.1550000   1.1590000
  25.6610000 135.1660000   1.6770000  25.1420000 132.9690000   1.7810000
  24.6433546 132.2638220   1.2573817  25.6510000 132.6150000   3.1340000
  25.4797424 131.5510894   3.2979032  27.1500000 132.9070000   3.3250000
  27.3427362 133.9523169   3.0836193  27.5530000 132.6410000   4.7310000
  27.3609787 131.5956912   4.9729884  28.6156432 132.8519101   4.8510290
  26.9782814 133.2800866   5.4013495  27.9740000 132.0500000   2.4260000
  27.7067121 132.2488859   1.3881640  29.0300300 132.2732452   2.5778614
  27.7886977 131.0002573   2.6536052  24.8900000 133.2910000   4.2690000
  24.5070000 132.6200000   5.2300000  24.7550000 134.6220000   4.2280000
  25.2576992 135.1629391   3.5389588  23.8860000 135.3220000   5.1490000
  24.2106311 135.1143822   6.1686120  23.9070000 136.8280000   4.9290000
  23.8283577 137.3309854   5.8928051  24.8458915 137.1060552   4.4501804
  22.7340000 137.2490000   4.0360000  22.9200592 136.8675237   3.0320286
  21.8123816 136.8151607   4.4239499  22.5660000 138.7560000   3.9590000
  23.5250000 139.4870000   3.6870000  21.3500000 139.2270000   4.2140000
  21.1791918 140.2217847   4.1775394  20.6020876 138.5880686   4.4431179
  22.4480000 134.9010000   5.0110000  21.6430000 135.3330000   5.8390000
  22.1060000 134.1160000   3.9860000  22.7846409 133.8905562   3.2727532
  20.7440000 133.6080000   3.8320000  20.2098730 133.7288659   4.7744431
  19.9810000 134.3480000   2.7420000  20.4630756 134.1046479   1.7951726
  18.9642228 133.9552364   2.7429336  19.9410000 135.8530000   2.9160000
  20.4756265 136.0934735   3.8349384  20.4423876 136.3242336   2.0706311
  18.5200000 136.3670000   3.0100000  17.6520000 135.9000000   2.2280000
  18.2880000 137.2600000   3.8670000  20.7730000 132.1270000   3.5240000
  19.8900000 131.6080000   2.8430000  21.7910000 131.4180000   4.0000000
  22.5772732 131.8651271   4.4493898  21.8280000 129.9440000   3.8190000
  22.8521760 129.5855116   3.9221934  20.9600000 129.2520000   4.8700000
  19.9223170 129.3705479   4.5581351  21.2237231 128.1944464   4.8585719
  21.1320000 129.8020000   6.2780000  20.9300560 130.8730336   6.2636337
  20.4191934 129.3072101   6.9376906  22.5370000 129.5610000   6.7830000
  22.8324755 128.5415411   6.5350147  23.2136309 130.2634210   6.2963021
  22.6380000 129.7380000   8.2210000  22.4686535 130.6640880   8.5867623
  22.9370000 128.7680000   9.0710000  23.1610000 127.5440000   8.6220000
  23.1029838 127.3541716   7.6316974  23.3890029 126.8049611   9.2715659
  23.0100000 129.0220000  10.3650000  22.8371067 129.9577951  10.7033719
  23.2383830 128.2792746  11.0102123  21.3740000 129.5920000   2.4050000
  20.6940000 128.5710000   2.2480000  21.7380000 130.4190000   1.4290000
  22.3278537 131.2144209   1.6276896  21.3800000 130.1460000   0.0200000
  20.3515528 129.7905309  -0.0435400  21.5060000 131.4270000  -0.8050000
  20.8795955 132.1800430  -0.3268339  22.5492785 131.7389847  -0.7566719
  21.0910000 131.2720000  -2.2580000  21.7447369 130.5153040  -2.6917512
  20.0663214 130.9006491  -2.2427906  21.1580000 132.5390000  -3.0950000
  21.5770000 133.5840000  -2.5530000  20.7980000 132.4770000  -4.2880000
  22.4350000 129.1780000  -0.4770000  23.5610000 129.4510000  -0.1910000
  22.0450000 128.0730000  -1.1010000  21.0588970 127.8655935  -1.1694314
  23.0030000 127.1050000  -1.6630000  23.7824669 127.6229014  -2.2218458
  23.6490000 126.2840000  -0.5890000  22.8816848 125.7521852  -0.0264163
  24.3311453 125.5644359  -1.0417754  24.2048042 126.9372493   0.0836413
  22.2580000 126.2180000  -2.6470000  21.0410000 126.0690000  -2.4770000
  22.9470000 125.6860000  -3.6520000  23.9125247 125.9624527  -3.7589361
  22.3620000 124.8370000  -4.6630000  21.4682830 124.3676160  -4.2518458
  21.9700000 125.6130000  -5.9330000  22.8684571 126.1274405  -6.2739178
  21.6742381 124.8699850  -6.6736440  20.8400000 126.6280000  -5.7500000
  19.9622268 126.0896654  -5.3924936  21.1665817 127.3359689  -4.9882759
  20.4880000 127.3820000  -7.0260000  19.5810000 128.2520000  -6.9960000
  21.1260000 127.1130000  -8.0650000  23.2840000 123.6740000  -4.9700000
  22.7950000 122.6430000  -5.4820000  24.5550000 123.7270000  -4.5130000
  24.8927176 124.5953954  -4.1232109  25.4800000 122.6060000  -4.6060000
  24.9185236 121.6928658  -4.8035585  26.5070000 122.8080000  -5.7390000
  26.8639029 123.8296918  -5.6091328  27.3558251 122.1241922  -5.7372676
  25.9000000 122.7360000  -7.1110000  25.3570000 123.8590000  -7.7340000
  25.4265470 124.8356880  -7.2551016  24.7290000 123.7330000  -8.9620000
  24.3275615 124.6103220  -9.4692020  24.6130000 122.4850000  -9.5440000
  24.1115515 122.3891804 -10.5070514  25.1270000 121.3610000  -8.9150000
  25.0343535 120.3791363  -9.3791773  25.7460000 121.4880000  -7.7190000
  26.1360607 120.6061106  -7.2108428  26.1760000 122.4300000  -3.2880000
  26.0070000 123.2290000  -2.3700000  26.9850000 121.3810000  -3.2080000
  27.1112957 120.7834909  -4.0124449  27.7060000 121.0560000  -1.9880000
  28.3976427 121.8577185  -1.7292009  27.0095464 120.8977540  -1.1645864
  28.4920000 119.7830000  -2.2200000  28.4390000 119.1820000  -3.2890000
  29.1820000 119.3480000  -1.1760000  29.1677577 119.8675594  -0.3100008
  29.9800000 118.1230000  -1.2370000  29.6534200 117.5360849  -2.0954727
  31.4490000 118.4500000  -1.4050000  31.7528468 119.0066778  -0.5184972
  32.3670000 117.2170000  -1.5790000  32.0640370 116.6600397  -2.4656275
  33.4000719 117.5456346  -1.6924062  32.2846119 116.5753439  -0.7017371
  31.5530000 119.2410000  -2.6000000  32.4719413 119.4747345  -2.7500513
  29.7390000 117.4000000   0.0670000  29.6520000 118.0280000   1.1330000
  29.6140000 116.0850000  -0.0050000  29.5539710 115.5769685  -0.8758615
  29.5170000 115.3370000   1.2370000  28.7799201 115.8106088   1.8854652
  29.1090000 113.8760000   1.0170000  28.9086197 113.4005763   1.9771668
  27.8790000 113.8390000   0.1790000  28.0787508 114.3138636  -0.7815747
  27.5803717 112.8033574   0.0166281  27.0760698 114.3726539   0.6875442
  30.1700000 113.1570000   0.3640000  29.9037065 112.2442431   0.2314750
  30.8690000 115.4110000   1.9200000  31.9030000 115.5470000   1.2660000
  30.8430000 115.3300000   3.2460000  29.9438592 115.4016181   3.7004403
  32.0310000 115.1670000   4.0820000  32.9411854 115.1293206   3.4834668
  32.1630000 116.2870000   5.0940000  31.2628077 116.3314510   5.7070074
  33.0273333 116.1012676   5.7315984  32.2939480 117.2351056   4.5724181
  31.8960000 113.8360000   4.7790000  30.7990000 113.4350000   5.1080000
  33.0000000 113.1260000   4.9430000  33.8580283 113.5061918   4.5697161
  33.0500000 111.8230000   5.6090000  32.0731396 111.6045780   6.0404334
  33.4200000 110.6910000   4.6280000  32.4765665 110.2863009   4.2615972
  33.9553317 111.1650517   3.8053245  34.2740000 109.5540000   5.2060000
  35.2708071 109.9801577   5.3194290  33.8850854 109.2750517   6.1853020
  34.3490000 108.3100000   4.3130000  33.3610000 108.0330000   3.5880000
  35.3740000 107.5840000   4.3770000  34.0970000 111.9870000   6.6940000
  35.1920000 112.4810000   6.4150000  33.7780000 111.6410000   7.8710000
  32.8705534 111.2517271   8.0833831  34.7170000 111.8550000   8.9740000
  35.2685538 112.7850379   8.8364602  34.0060000 111.8780000  10.3370000
  33.4069603 110.9752365  10.4564569  35.0620000 111.9400000  11.4450000
  35.6611766 112.8427951  11.3264715  34.5689839 111.9567724  12.4169848
  35.7083025 111.0646123  11.3810582  33.0370000 113.0400000  10.4280000
  33.5741413 113.9144902  10.7952149  32.6452395 113.2466269   9.4320439
  31.9090000 112.7270000  11.3500000  32.2999697 112.5207016  12.3463350
  31.2296695 113.5781776  11.3958918  31.3710691 111.8528363  10.9831648
  35.7720000 110.7570000   8.9380000  35.4550000 109.5880000   8.6920000
  37.0300000 111.1140000   9.1750000  37.2915472 112.0799564   9.3114576
  38.0830000 110.1090000   9.1630000  37.6457539 109.1107931   9.1853138
  38.9300000 110.2460000   7.8870000  39.4073519 109.2815905   7.7133660
  38.2685996 110.4789349   7.0524996  39.9840000 111.3130000   8.0040000
  41.2320000 111.0550000   8.5550000  41.4611481 110.0461378   8.8982021
  42.1910000 112.0700000   8.6730000  43.1696519 111.8718197   9.1101120
  41.8810000 113.3360000   8.2210000  42.7580000 114.3840000   8.2810000
  43.6032226 114.1441282   8.6678591  40.6530000 113.5990000   7.6860000
  40.4153031 114.6069384   7.3459105  39.7140000 112.5940000   7.5750000
  38.7368836 112.8065625   7.1412250  38.9910000 110.1510000  10.3860000
  39.8310000 109.2550000  10.5210000  38.8690000 111.1590000  11.2540000
  38.3732411 111.9828343  10.9447761  39.4420000 111.1610000  12.5860000
  39.7108110 110.1423113  12.8654871  40.6810000 112.0420000  12.7050000
  40.4255668 113.0672166  12.4370732  41.0488176 112.0159617  13.7307351
  41.4554899 111.6734414  12.0323715  38.3560000 111.6320000  13.5590000
  37.1980000 111.8990000  13.1720000  38.7340000 111.7800000  14.8280000
  39.7002999 111.7305386  15.1176851  37.7080000 111.9420000  15.8590000
  37.1114888 112.8330860  15.6634513  36.7740000 110.7110000  15.8510000
  36.2968688 110.6828196  14.8713823  37.4121337 109.8352475  15.9690800
  35.7260000 110.7100000  16.9150000  34.5700000 111.4460000  16.7660000
  34.4326789 112.0357601  15.8596748  33.5940000 111.4440000  17.7430000
  32.6795576 112.0232943  17.6152696  33.7870000 110.6950000  18.8990000
  32.8420000 110.6700000  19.9040000  32.0729555 111.2106069  19.7092841
  34.9370000 109.9570000  19.0590000  35.0914664 109.3671903  19.9625293
  35.8940000 109.9660000  18.0720000  36.8056740 109.3806162  18.1914843
  38.3560000 112.1560000  17.2190000  39.5530000 111.9200000  17.4050000
  37.5410000 112.6330000  18.1640000  36.5773743 112.8393501  17.9427662
  38.0190000 112.9230000  19.5130000  38.4402461 112.0256203  19.9661674
  39.1340000 114.0210000  19.4470000  39.9444109 113.6846218  18.8003293
  38.7159601 114.9472710  19.0528368  39.6740000 114.2650000  20.8540000
  40.3317016 115.1329974  20.8080666  38.8237898 114.4877322  21.4986977
  40.4350000 113.0860000  21.4140000  39.7920306 112.2167447  21.5521472
  41.2823752 112.8141366  20.7845995  40.9420000 113.5120000  22.7300000
  40.8187765 114.4841112  22.9747757  41.5080000 112.7130000  23.6040000
  41.9330000 113.2250000  24.7710000  41.8130870 114.2098071  24.9604094
  42.3705118 112.6228052  25.4536745  41.6470000 111.4260000  23.3950000
  41.3112966 111.0181368  22.5341569  42.0891195 110.8485382  24.0958331
  36.8450000 113.3660000  20.3850000  35.8200000 113.8550000  19.8880000
  37.0160000 113.1840000  21.7080000  37.8923771 112.8083566  22.0410984
  35.9680000 113.4880000  22.6940000  35.2632485 114.2020095  22.2678370
  35.2020000 112.2220000  23.0920000  35.9587806 111.4832499  23.3558763
  34.6268764 112.4852445  23.9797135  34.2840000 111.6480000  22.0540000
  34.2661335 112.3203475  21.1962527  34.6670479 110.6755003  21.7447786
  32.8860000 111.4880000  22.5960000  32.4070000 112.4480000  23.2450000
  32.2620000 110.4190000  22.3860000  36.5970000 114.1110000  23.9330000
  37.1440000 113.3900000  24.7570000  36.4610000 115.4120000  24.1120000
  35.9348260 115.9226999  23.4174312  37.1210000 116.1660000  25.1720000
  37.7616172 115.4894811  25.7377129  37.9830000 117.3180000  24.6260000
  37.3084009 117.9849157  24.0891214  38.3938328 117.8374927  25.4917042
  39.1230000 116.8920000  23.6990000  38.7400712 116.1201159  23.0314214
  39.4044389 117.7689324  23.1160070  40.3440000 116.3620000  24.4400000
  41.4440000 116.9590000  24.3210000  40.2050000 115.3470000  25.1560000
  36.1000000 116.6560000  26.2020000  34.9220000 116.2980000  26.1800000
  36.5980000 117.4230000  27.1760000  37.5945912 117.5754751  27.2364703
  35.7440000 118.0160000  28.2000000  34.8393312 118.3980522  27.7270204
  35.3460000 117.0140000  29.2710000  36.1521844 116.2884540  29.3793928
  35.2117630 117.5502507  30.2104230  34.0560000 116.2890000  28.9120000
  33.6388607 116.7764687  28.0308247  34.2687820 115.2449019  28.6824679
  33.0400000 116.3400000  30.0140000  32.3800000 115.3420000  30.3190000
  32.8870000 117.5120000  30.5980000  32.2186295 117.6156012  31.3480994
  33.4388660 118.3008461  30.2926032  36.4710000 119.1910000  28.8270000
  37.6060000 119.0590000  29.2980000  35.8030000 120.3310000  28.8550000
  34.8313484 120.3199588  28.5795539  36.3950000 121.6030000  29.2490000
  37.1768884 121.4256865  29.9874508  37.0080000 122.3200000  28.0540000
  37.6981176 121.6485206  27.5431652  36.1773538 122.5601417  27.3903293
  37.7390000 123.6040000  28.4390000  38.5710000 123.6150000  29.4000000
  37.4980000 124.6140000  27.7270000  35.1970000 122.3420000  29.8330000
  34.2230000 122.5820000  29.1160000  35.2090000 122.5830000  31.1440000
  35.9750372 122.2336850  31.7019117  34.1090000 123.2660000  31.8260000
  34.3469296 123.4205427  32.8784283  33.8930000 124.6170000  31.1750000
  33.6599223 124.5990162  30.1103636  33.0787343 125.0984050  31.7165908
  35.0650000 125.4760000  31.3320000  35.2280000 126.2040000  32.4840000
  34.4485437 126.2299562  33.2454946  36.3550000 126.8830000  32.6640000
  36.4663469 127.3933930  33.6206617  37.3670000 126.9650000  31.7080000
  38.2581198 127.5742578  31.8590309  37.2160000 126.2530000  30.5570000
  37.9790940 126.2870268  29.7794204  36.0850000 125.4840000  30.3800000
  35.9778618 124.8700291  29.4857623  32.8270000 122.4630000  31.8430000
  31.7300000 123.0220000  31.7860000  32.9540000 121.1520000  31.9400000
  33.8607785 120.7215076  32.0519305  31.7910000 120.2960000  31.8880000
  32.1036759 119.2719472  32.0920806  31.0865166 120.6197605  32.6541472
  31.0990000 120.3430000  30.5230000  30.0980000 119.6680000  30.2610000
  31.6310000 121.1790000  29.6300000  32.3555019 121.8252406  29.9085128
  31.1850000 121.1950000  28.2350000  30.1012743 121.0866469  28.1914404
  31.5990000 122.4840000  27.5140000  32.6870606 122.5329533  27.4712444
  31.0330000 122.5080000  26.0970000  29.9448861 122.4595410  26.1389590
  31.3362363 123.4292876  25.5996293  31.4130273 121.6523377  25.5388598
  31.1530000 123.7360000  28.2360000  30.0658135 123.7921378  28.1814589
  31.4603185 123.6561337  29.2787254  31.7650000 125.0090000  27.6160000
  31.4577252 125.0897998  26.5733335  31.4181126 125.8842115  28.1653389
  32.8522310 124.9537945  27.6705981  31.8290000 119.9960000  27.5740000
  33.0680000 119.8740000  27.5630000  31.0150000 119.1180000  27.0060000
  30.0219455 119.0962401  27.1889441  31.5800000 118.0940000  26.1360000
  32.4760651 117.6690590  26.5883180  30.5630000 116.9770000  25.9270000
  29.7015499 117.4122853  25.4205125  31.0263830 116.2323974  25.2797418
  30.1070000 116.3100000  27.2260000  30.9845095 115.8820549  27.7107070
  29.6714670 117.0724787  27.8717835  29.0880000 115.2200000  26.9750000
  27.9450000 115.5400000  26.5590000  29.4300000 114.0450000  27.2000000
  32.0280000 118.6880000  24.7910000  31.2860000 119.4070000  24.1210000
  33.2760000 118.4430000  24.4260000  33.8765868 117.8967708  25.0268564
  33.8330000 118.9760000  23.1990000  33.1120899 119.6580501  22.7482279
  35.1580000 119.7100000  23.4240000  35.8424760 119.0613344  23.9706498
  35.7670000 120.0770000  22.0970000  35.0832537 120.7260806  21.5499295
  36.7096314 120.5990957  22.2612037  35.9496676 119.1719169  21.5177278
  34.9240000 120.9520000  24.2550000  34.3738967 121.6565013  23.6311691
  34.3054094 120.6586979  25.1031857  36.1730000 121.5980000  24.7510000
  36.7919357 121.8920156  23.9033130  35.9179486 122.4806765  25.3374557
  36.7234498 120.8942108  25.3753281  34.0230000 117.8210000  22.2380000
  34.0260000 116.6510000  22.6230000  34.1600000 118.1610000  20.9580000
  34.0594503 119.1270991  20.6811577  34.3980000 117.1650000  19.9190000
  34.9382337 116.3128264  20.3313675  33.0980000 116.6580000  19.2770000
  32.3627411 117.4609221  19.2239943  33.4270000 116.1880000  17.8880000
  34.1619089 115.3847049  17.9402190  32.5218987 115.8208123  17.4041970
  33.8361595 117.0171060  17.3107016  32.5100000 115.5530000  20.1120000
  32.2935340 115.9284898  21.1121260  31.5884168 115.1988843  19.6500626
  33.2214881 114.7300051  20.1795638  35.3050000 117.8010000  18.8880000
  34.9880000 118.8730000  18.3660000  36.4390000 117.1470000  18.6200000
  36.6683420 116.3589269  19.2085936  37.3680000 117.5100000  17.5600000
  37.0782347 118.4674666  17.1271110  38.7870000 117.6330000  18.1110000
  39.0000993 116.7111393  18.6521662  39.4560092 117.7136963  17.2542534
  38.9990000 118.8180000  19.0300000  39.3867978 119.6504988  18.4429229
  38.0401776 119.0975095  19.4666189  39.9870000 118.4780000  20.1460000
  39.4429563 117.9320979  20.9167830  40.7587284 117.8352591  19.7224214
  40.6320000 119.7060000  20.7570000  40.5518353 120.5493516  20.0711194
  40.1413815 119.9555733  21.6978006  42.0820000 119.4050000  21.0130000
  42.5369001 119.1741343  20.1412967  42.5270083 120.2147590  21.4208701
  42.1565012 118.6238323  21.6488661  37.3140000 116.4400000  16.4700000
  37.5880000 115.2660000  16.7420000  36.9870000 116.8440000  15.2390000
  36.6796354 117.7941401  15.0878041  36.9880000 115.9290000  14.1040000
  37.4908114 115.0035668  14.3848083  35.5490000 115.5910000  13.6480000
  35.5746331 114.7721314  12.9290449  34.7400000 115.1830000  14.8400000
  34.7135217 116.0015854  15.5592481  33.7242327 114.9432847  14.5255897
  35.1924627 114.3066850  15.3041672  34.9650000 116.8040000  13.0160000
  35.5710496 117.0948377  12.1579677  33.9486332 116.5888966  12.6861081
  34.9466934 117.6185496  13.7400681  37.7860000 116.4630000  12.9070000
  37.9880000 117.6680000  12.7020000  38.2350000 115.5160000  12.0920000
  38.2294974 114.5605571  12.4194110  38.7920000 115.7920000  10.7690000
  38.7180451 116.8606287  10.5673503  40.2680000 115.3740000  10.6680000
  40.3060217 114.2852393  10.7034072  40.6437289 115.7190225   9.7047309
  41.1450000 115.9580000  11.8030000  40.8805086 117.0099687  11.9102705
  40.8899699 115.4245731  12.7187060  42.6750000 115.8320000  11.5380000
  42.8639042 116.1304107  10.5068040  43.1911147 116.5142408  12.2134795
  43.1970000 114.3910000  11.7620000  42.4892995 113.8807774  12.4154014
  43.2197502 113.8931244  10.7926180  44.5840000 114.3490000  12.3860000
  44.5630388 114.8099138  13.2844536  44.8696320 113.3878488  12.5072551
  45.2400038 114.8213589  11.7804959  37.9150000 115.0490000   9.7750000
  37.5690000 113.8700000  10.0110000  37.4870000 115.7620000   8.7210000
  37.7166082 116.7449680   8.6870407  36.6900000 115.2020000   7.6400000
  36.6396552 114.1169274   7.7304542  35.2610000 115.7600000   7.6310000
  35.2946667 116.8449514   7.5317681  34.7100391 115.3358179   6.7915884
  34.7615303 115.4962608   8.5632397  37.3750000 115.5240000   6.3260000
  38.2730000 116.3620000   6.2700000  36.8380000 114.9340000   5.2620000
  36.0070342 114.3820645   5.4199949  37.3820000 114.9960000   3.9050000
  37.8990978 115.9403480   3.7349532  38.3530000 113.8210000   3.6370000
  39.0031060 113.6737328   4.4994239  37.5280000 112.5430000   3.3920000
  36.8779403 112.6893491   2.5293848  38.2005941 111.7066371   3.2016976
  36.9209921 112.3276136   4.2713460  39.2500000 114.1640000   2.4540000
  38.6065981 114.5601639   1.6683862  39.9365208 114.9421618   2.7875459
  40.0490000 112.9790000   1.9090000  39.3631000 112.2005681   1.5748072
  40.6610620 113.3082234   1.0693029  40.6930214 112.5825644   2.6939682
  36.2270000 114.9710000   2.8880000  35.2610000 114.2030000   3.0290000
  36.3340000 115.8000000   1.8500000  37.1175049 116.4317511   1.7656790
  35.3130000 115.8160000   0.8000000  34.3300427 115.9308645   1.2568372
  35.5013499 116.6540018   0.1288990  35.3380000 114.5230000  -0.0030000
  36.3940000 113.9500000  -0.2540000  34.1460000 114.0550000  -0.3740000
  33.3363061 114.6117939  -0.1405998  33.9450000 112.8290000  -1.1280000
  34.9190651 112.3847599  -1.3328100  33.0860000 111.8030000  -0.3850000
  32.6091370 112.3142690   0.4512445  32.3219433 111.4482216  -1.0767006
  33.8810000 110.6290000   0.1310000  33.2056519 109.9764526   0.6843422
  34.2869161 110.0893701  -0.7246482  35.0610000 111.0840000   1.0730000
  35.7976388 111.6404369   0.4934828  34.6700393 111.7189095   1.8680718
  35.7180000 109.9270000   1.6780000  35.1191480 109.2931166   2.1875758
  37.0140000 109.6500000   1.6010000  37.8570000 110.4610000   0.9880000
  37.5166113 111.3129853   0.5656772  38.8381877 110.2254893   0.9443538
  37.4690000 108.5350000   2.1630000  36.8288897 107.9153686   2.6388317
  38.4528181 108.3123576   2.1117066  33.2050000 113.0510000  -2.4290000
  33.7000000 112.7120000  -3.5100000  31.9760000 113.5250000  -2.3270000
  31.6332804 113.8828358  -1.4468885  31.0690000 113.4890000  -3.4520000
  31.6502188 113.4103906  -4.3707516  30.1060000 112.3110000  -3.3830000
  29.9492423 112.0175839  -2.3450052  29.1505316 112.5834631  -3.8312678
  30.7130000 111.1480000  -4.1520000  30.5114378 111.3537195  -5.2032626
  31.7891231 111.0691793  -3.9975703  30.0900000 109.8590000  -3.7960000
  30.1180000 109.4490000  -2.6490000  29.5840000 109.1500000  -4.7970000
  29.1455703 108.2595351  -4.6100428  29.6396102 109.5040669  -5.7412698
  30.3350000 114.7890000  -3.4780000  30.0180000 115.3460000  -2.4230000
  30.1630000 115.2860000  -4.6990000  30.5831799 114.8384331  -5.5010175
  29.4200000 116.5010000  -4.9070000  29.4664367 117.1058844  -4.0014296
  29.9780000 117.3220000  -6.0730000  29.2159803 117.2716592  -6.8507474
  30.0471945 118.3432748  -5.6984204  31.3060000 116.9070000  -6.6450000
  32.0146107 116.8095150  -5.8225230  31.1791336 115.9397124  -7.1311704
  31.8570000 117.9560000  -7.6940000  31.9464170 118.9110588  -7.1763454
  32.8461185 117.6150513  -7.9997743  31.0370000 118.1460000  -8.8890000
  30.5926622 119.0440362  -9.0162564  30.8140000 117.1890000  -9.7970000
  31.3790000 115.9870000  -9.7050000  31.9953977 115.7799308  -8.9321635
  31.1886355 115.2877167 -10.4084656  30.0380000 117.4570000 -10.8410000
  29.6267610 118.3743311 -10.9383969  29.8626862 116.7422410 -11.5327249
  27.9700000 116.1350000  -5.1530000  27.6070000 114.9600000  -5.1360000
  27.1200000 117.0890000  -5.3820000  27.4621712 118.0253886  -5.5438474
  25.7020000 116.8730000  -5.3860000  25.4281345 116.2655036  -6.2485804
  25.2520000 116.1450000  -4.1100000  24.1765363 115.9681518  -4.0957938
  25.7772326 115.1913527  -4.0572029  25.5870000 116.8990000  -2.8280000
  24.9320000 118.0830000  -2.4830000  24.1781319 118.4723793  -3.1672269
  25.2180000 118.7620000  -1.3050000  24.6774668 119.6757610  -1.0580883
  26.2320000 118.2570000  -0.4070000  26.4939237 118.7981609   0.5021979
  26.8740000 117.0680000  -0.7150000  27.6251728 116.6569760  -0.0405382
  26.5450000 116.3770000  -1.9300000  27.0368548 115.4347108  -2.1713915
  25.0170000 118.2240000  -5.4970000  25.4690000 119.2220000  -4.9380000
  23.9020000 118.2780000  -6.2280000  23.6067730 117.4980416  -6.7977414
  23.0870000 119.4790000  -6.2300000  23.7310734 120.3427269  -6.0649412
  22.3350000 119.6730000  -7.5590000  22.9924727 119.3688285  -8.3734376
  21.4505399 119.0360222  -7.5495336  21.9000000 121.1710000  -7.7680000
  21.5497859 121.5426256  -6.8050123  22.7883795 121.7258486  -8.0697066
  20.7970000 121.3590000  -8.8210000  21.1204386 120.8788120  -9.7445291
  19.8911055 120.8737261  -8.4577316  20.5050000 122.8670000  -9.0940000
  21.0291605 123.1277975 -10.0134243  19.4301109 122.9561226  -9.2513843
  20.9310000 123.8040000  -7.9890000  21.9270562 123.7218857  -7.8432983
  20.7057504 124.7539828  -8.2476414  20.4450952 123.5627799  -7.1370561
  22.0780000 119.3610000  -5.0880000  21.4230000 118.3400000  -4.8850000
  21.9620000 120.4530000  -4.3260000  22.5500674 121.2659209  -4.4419124
  21.0000000 120.4450000  -3.2260000  20.8721250 119.4345658  -2.8377089
  21.4150000 121.3740000  -2.0600000  21.5664038 122.3792661  -2.4532126
  20.3500000 121.4090000  -0.9790000  20.1983607 120.4040949  -0.5849540
  20.6705370 122.0699472  -0.1737017  19.4152359 121.7781264  -1.4009756
  22.7500000 120.9220000  -1.4610000  23.5225698 120.9528634  -2.2293004
  23.0254069 121.5871937  -0.6426064  22.6535564 119.9037731  -1.0841533
  19.6210000 120.8330000  -3.7770000  19.5220000 121.7810000  -4.5270000
  18.5820000 120.0930000  -3.4100000  18.7190432 119.2841156  -2.8209121
  17.2270000 120.3800000  -3.8930000  17.2726387 121.0223392  -4.7724411
  16.5200000 119.0800000  -4.2740000  16.4994691 118.4965173  -3.3535514
  15.4993625 119.3013347  -4.5861058  17.2270000 118.2770000  -5.3720000
  18.2836367 118.2060078  -5.1139695  16.6460000 116.8760000  -5.5230000
  15.5894255 116.9461834  -5.7815023  17.1780433 116.3445588  -6.3120506
  16.7544473 116.3339314  -4.5835846  17.1360000 119.0410000  -6.6810000
  17.6172379 120.0126262  -6.5694117  17.6367190 118.4763001  -7.4674450
  16.0886236 119.1833097  -6.9471760  16.4110000 121.1470000  -2.8520000
  15.5370000 121.9040000  -3.1750000  16.7120000 120.9390000  -1.5740000
  17.3958535 120.2447752  -1.3084899  15.9670000 121.6020000  -0.5280000
  15.9138328 122.6682925  -0.7477560  14.5340000 121.0520000  -0.4100000
  14.0878703 121.1272140  -1.4016705  14.6243082 120.0020637  -0.1314714
  13.6450000 121.7740000   0.6050000  12.6890141 121.2516506   0.6416469
  14.1382145 121.6964076   1.5739262  13.4090000 123.2410000   0.2720000
  12.2830000 123.6030000  -0.1530000  14.3520000 124.0430000   0.4440000
  16.6740000 121.5770000   0.8100000  17.4610000 120.6760000   1.1030000
  16.3880000 122.5790000   1.6300000  15.8316223 123.3562097   1.3036746
  16.8880000 122.6120000   3.0090000  17.3215067 121.6444384   3.2619736
  17.9530000 123.6800000   3.1790000  17.4815840 124.6132301   2.8708641
  18.1683928 123.7176252   4.2468438  19.2580000 123.4870000   2.4020000
  19.0476134 123.3288825   1.3442490  20.0860000 124.7350000   2.5680000
  20.2971959 124.8935359   3.6255261  21.0236834 124.6246546   2.0233217
  19.5369104 125.5908427   2.1754005  20.0280000 122.2770000   2.9360000
  19.4171798 121.3806518   2.8284917  20.9524784 122.1559315   2.3713909
  20.2635363 122.4313956   3.9889879  15.7350000 122.8790000   3.9590000
  15.0280000 123.8830000   3.8180000  15.5340000 121.9750000   4.9140000
  16.0915904 121.1341250   4.9600596  14.4520000 122.1460000   5.8890000
  14.0702895 123.1666204   5.8619769  13.2840000 121.1650000   5.5310000
  13.6601417 120.1427146   5.4916401  12.5000554 121.2343649   6.2851349
  12.7140000 121.5500000   4.1680000  12.3267537 122.5657094   4.2484714
  13.5346439 121.5303408   3.4508814  11.6140000 120.6280000   3.6990000
  11.9713289 119.6073425   3.5623494  10.7663031 120.6269487   4.3842067
  11.1670000 121.1500000   2.3960000  11.6317251 121.9778502   2.0513350
  10.2380000 120.5970000   1.6510000   9.9170000 121.1740000   0.4810000
  10.3896859 122.0182423   0.1913052   9.2044479 120.7609190  -0.1035795
   9.6330000 119.4840000   1.9900000   9.8791320 119.0218608   2.8536820
   8.9237293 119.0941127   1.3858298  14.9460000 121.9140000   7.3170000
  15.9010000 121.1580000   7.5350000  14.2920000 122.5600000   8.2820000
  13.6437341 123.3033370   8.0645127  14.5310000 122.2380000   9.6880000
  15.5756091 122.5029913   9.8513115  13.6510000 123.1150000  10.6030000
  12.6046439 122.9507308  10.3455999  13.8750000 122.7640000  12.0770000
  14.9211072 122.9284716  12.3352796  13.2434326 123.3958194  12.7015206
  13.6200948 121.7175679  12.2446421  14.0880000 124.4750000  10.5140000
  13.5427417 125.0241297  11.0821112  14.2320000 120.7620000   9.8730000
  13.2120000 120.2700000   9.3790000  15.1350000 120.0550000  10.5420000
  15.9763838 120.4970207  10.8837459  14.9710000 118.6340000  10.7570000
  14.6159562 118.1648030   9.8394504  16.3020000 117.9810000  11.1590000
  17.0919070 118.4628258  10.5828142  16.4565807 118.1758802  12.2202382
  16.3360000 116.4620000  10.9060000  15.6723512 116.2143235  10.0775512
  17.3580592 116.1852315  10.6473569  15.9070000 115.6560000  12.1340000
  15.0850000 114.7370000  12.0220000  16.4670000 115.9740000  13.3030000
  16.2105378 115.4656505  14.1372118  17.1446821 116.7215400  13.3480821
  13.9210000 118.3960000  11.8240000  13.5850000 119.2930000  12.5990000
  13.3870000 117.1870000  11.8650000  13.5653346 116.4901930  11.1559470
  12.4190000 116.8840000  12.8960000  12.2591999 117.7690250  13.5118683
  11.0720000 116.4550000  12.2940000  10.6894478 117.2808734  11.6942616
  11.2462392 115.5910857  11.6526008  10.1240000 116.1180000  13.2930000
   9.2994891 115.8565866  12.8765332  12.9370000 115.8450000  13.8810000
  12.9550000 114.6490000  13.5850000  13.4170000 116.3190000  15.0340000
  13.6101267 115.6705717  15.7838948  13.6210000 117.7530000  15.2830000
  13.3693377 118.3075428  14.3789825  12.7490000 118.2750000  16.4390000
  12.7785334 117.5004588  17.2053635  13.1883483 119.1916531  16.8324719
  11.2860000 118.5400000  16.0330000  10.8120000 118.0010000  15.0150000
  10.6120000 119.3400000  16.7320000  15.0990000 118.0620000  15.5820000
  15.8460000 117.2010000  16.0550000  15.5060000 119.3050000  15.3210000
  14.8474300 119.9849573  14.9688027  16.8820000 119.7220000  15.5280000
  16.8847954 120.7620208  15.8542639  17.3216257 119.0967776  16.3051265
  17.7170000 119.5980000  14.2610000  17.7530000 118.5290000  13.6530000
  18.2970000 120.4730000  13.8810000  18.0353000 121.4240669  14.0979890
  19.3930000 120.2490000  12.8970000  20.1879719 120.9906630  12.9748125
  19.9910000 118.8380000  13.0500000  19.1903971 118.1092833  12.9230854
  21.0800000 118.5770000  12.0240000  21.8812249 119.3050879  12.1505990
  21.4778340 117.5718097  12.1633604  20.6636052 118.6665233  11.0206555
  20.4980000 118.6050000  14.4740000  19.6381210 118.6822016  15.1393937
  20.8968782 117.5913457  14.5127369  21.5610000 119.5800000  14.9120000
  21.1626869 120.5939033  14.8739670  21.8685870 119.3490453  15.9318771
  22.4214437 119.5030488  14.2473083  18.9230000 120.5590000  11.4740000
  19.0290000 121.7830000  11.4040000  18.5790000 120.3090000  10.5750000
  18.2547228 119.4052112  10.8882244  18.4530000 120.6430000   9.1240000
  17.3927714 120.7663541   8.9030965  19.1910000 121.9090000   8.6960000
  18.6779877 122.7592415   9.1454519  20.2061993 121.8490578   9.0882719
  19.2410000 122.0880000   7.1830000  20.0496965 121.4670106   6.7976651
  18.2937029 121.7537151   6.7599351  19.4830000 123.5140000   6.7560000
  18.5950000 124.3600000   6.8090000  20.6970000 123.7950000   6.3150000
  20.9172765 124.7339858   6.0151913  21.3987197 123.0694260   6.2798845
  18.8470000 119.4340000   8.2750000  19.9350000 118.8990000   8.4810000
  18.1180000 118.9720000   7.3900000  17.1965161 119.3321739   7.1869199
  18.5910000 117.8130000   6.6350000  19.6588753 117.6798541   6.8082447
  17.8670000 116.5420000   7.0590000  16.7971171 116.7168080   6.9454574
  18.1776766 115.7435048   6.3852156  18.1640000 116.1390000   8.4910000
  18.7792828 116.8919327   8.9835650  17.2182292 116.0383175   9.0234309
  18.8920000 114.8100000   8.5410000  19.3710000 114.3210000   7.5080000
  19.0100000 114.2280000   9.7330000  19.4874070 113.3416232   9.8137475
  18.6215460 114.6756525  10.5508093  18.3760000 118.1120000   5.1630000
  17.3050000 118.5920000   4.7930000  19.4160000 117.9010000   4.3450000
  20.2709924 117.5208855   4.7252634  19.3820000 118.2440000   2.9280000
  18.5301945 118.8946785   2.7301516  20.6500000 118.9530000   2.4780000
  21.5109302 118.3101207   2.6613180  20.5838456 119.1758997   1.4130871
  20.7652950 119.8818429   3.0366208  19.1760000 116.9720000   2.1300000
  19.8280000 115.9540000   2.4050000  18.2290000 117.0230000   1.1970000
  17.6063693 117.8182389   1.2020456  17.9940000 115.9700000   0.2230000
  18.4225909 115.0404924   0.5977329  16.5010000 115.7480000  -0.0450000
  16.0732996 116.7058847  -0.3410212  16.4158565 115.0418717  -0.8709742
  15.7410000 115.2030000   1.1750000  16.1780537 114.2394852   1.4371528
  15.8855121 115.9029158   1.9980043  14.2550000 115.0300000   0.9130000
  13.8217244 116.0013686   0.6746426  14.1203962 114.3553676   0.0675105
  13.5560000 114.4480000   2.1470000  14.0232359 113.4898183   2.3743304
  13.7166283 115.1359847   2.9770451  12.0880000 114.2500000   1.9410000
  11.9389469 113.6121924   1.1721799  11.6789235 113.8662764   2.7809480
  11.6547901 115.1378217   1.7307597  18.7610000 116.3690000  -1.0310000
  18.5090000 117.4450000  -1.6110000  19.6720000 115.5040000  -1.4620000
  19.7003799 114.5719006  -1.0740765  20.6640000 115.8650000  -2.4620000
  20.3880467 116.7788342  -2.9881711  22.0690000 116.0700000  -1.8080000
  22.7862315 116.2947821  -2.5973993  22.0570000 117.2220000  -0.7810000
  21.3402868 116.9977066   0.0090099  23.0510462 117.3338202  -0.3480233
  21.7711778 118.1492317  -1.2776373  22.5410000 114.7710000  -1.1290000
  22.6085178 113.9760161  -1.8716601  23.5206632 114.9310134  -0.6787164
  21.8283957 114.4851648  -0.3553113  20.7190000 114.7590000  -3.5070000
  20.6340000 113.5720000  -3.1550000  20.8750000 115.1760000  -4.7890000
  20.7306560 116.1574117  -4.9789874  21.2030000 114.2960000  -5.9060000
  20.8165239 113.2985695  -5.6965533  20.5980000 114.7890000  -7.2290000
  19.5306848 114.9396881  -7.0670412  21.0666570 115.7431279  -7.4700405
  20.8060000 113.8060000  -8.3960000  21.8710950 113.6163615  -8.5290817
  20.2997421 112.8733379  -8.1471096  20.2350000 114.3360000  -9.7140000
  19.5000000 115.3310000  -9.7210000  20.5790000 113.6960000 -10.8330000
  20.2233310 114.0145583 -11.7230122  21.1935052 112.8958898 -10.7849543
  22.7290000 114.2670000  -5.9610000  23.3570000 115.2790000  -6.3340000
  23.3410000 113.1370000  -5.5570000  22.8649163 112.4228655  -5.0245946
  24.7550000 112.9470000  -5.8590000  25.3290794 113.6639824  -5.2720858
  25.2140000 111.5270000  -5.5200000  24.6729629 110.8173269  -6.1458940
  26.7230000 111.3840000  -5.7710000  27.2647682 112.0930849  -5.1450715
  27.0380273 110.3696073  -5.5263247  26.9382887 111.5877134  -6.8199284
  24.9520000 111.1850000  -4.0620000  23.8732313 111.2297382  -3.9124766
  25.2977314 110.1630136  -3.9067158  25.6280000 112.0930000  -3.0860000
  25.2824006 113.1151688  -3.2403753  25.3883821 111.7784982  -2.0702387
  26.7069013 112.0484458  -3.2346163  24.9760000 113.2420000  -7.3430000
  24.2070000 112.8080000  -8.2090000  26.0150000 113.9970000  -7.6660000
  26.5863521 114.4601415  -6.9737890  26.3150000 114.2330000  -9.0940000
  25.4170215 114.1007623  -9.6975287  26.8190000 115.6660000  -9.2750000
  27.6211870 115.7674477  -8.5440393  27.2291377 115.7656881 -10.2799624
  25.7780000 116.7550000  -9.0410000  25.4965678 116.7576705  -7.9879617
  26.3400000 118.1120000  -9.4170000  26.6212478 118.1102482 -10.4700885
  25.5850311 118.8790215  -9.2443713  27.2183373 118.3237096  -8.8072435
  24.5120000 116.4710000  -9.8270000  24.0950409 115.5144311  -9.5120070
  23.7846970 117.2618665  -9.6435284  24.7453017 116.4323472 -10.8910373
  27.3340000 113.1800000  -9.5330000  28.0590000 112.6660000  -8.6680000
  27.3660000 112.7920000 -10.8230000  26.3900000 113.0430000 -11.7890000
  26.2308168 114.1205203 -11.8303633  25.4704643 112.5523914 -11.4698506
  26.9200000 112.4840000 -13.0900000  27.5129255 113.2298263 -13.6194162
  26.1028660 112.1496333 -13.7292122  27.7830000 111.2990000 -12.6400000
  28.5988179 111.0123964 -13.3036253  27.1463663 110.4341822 -12.4532186
  28.3440000 111.8230000 -11.3280000  28.3400397 110.9924314 -10.6221400
  29.7820000 112.3420000 -11.5000000  30.5510000 111.7030000 -11.4910000
  29.9450000 113.3210000 -11.6210000  45.2840000 114.9970000 -20.8040000
  45.0557181 115.6964042 -21.4959698  44.6875711 115.1292989 -19.9997177
  45.3288944 114.0951693 -21.2565323  46.6400000 115.2570000 -20.3260000
  46.6074570 115.4477435 -19.2533132  47.5840000 114.0690000 -20.5860000
  47.0771790 113.1794354 -20.2119591  47.7000575 113.9928528 -21.6671255
  48.9630000 114.1830000 -19.9320000  49.5494574 113.3154555 -20.2345475
  49.4268596 115.0886807 -20.3227377  48.9110000 114.2550000 -18.4120000
  49.5090000 115.1890000 -17.8190000  48.2600000 113.3800000 -17.8010000
  47.2070000 116.5560000 -20.8940000  48.1590000 117.1170000 -20.3430000
  46.6270000 117.0490000 -21.9730000  45.8867931 116.5404911 -22.4351816
  47.0510000 118.3110000 -22.5410000  48.1058794 118.3485212 -22.8128839
  46.2060000 118.6110000 -23.7990000  45.1566920 118.6503807 -23.5065927
  46.6030000 119.9320000 -24.4420000  47.6521325 119.8932079 -24.7351139
  45.9862730 120.1074748 -25.3234508  46.4553409 120.7427935 -23.7286199
  46.3020000 117.5180000 -24.7220000  45.7752074 117.7100186 -25.5012424
  46.8970000 119.4370000 -21.5260000  47.7990000 120.2660000 -21.3460000
  45.7080000 119.5510000 -20.9330000  44.9741410 118.8739395 -21.0851164
  45.4170000 120.7120000 -20.0920000  45.7752389 121.6217987 -20.5736954
  43.9110000 120.8350000 -19.8760000  43.6574256 119.8658342 -19.4464456
  43.7934358 121.6096590 -19.1182519  42.9880000 121.1270000 -21.0450000
  43.1633429 120.3922797 -21.8308383  41.4660000 121.0510000 -20.5770000
  41.2897647 121.7858028 -19.7914398  40.8137877 121.2622999 -21.4243914
  41.2522936 120.0528574 -20.1947155  43.2740000 122.5070000 -21.6520000
  44.3038536 122.5418375 -22.0073692  42.5959540 122.6849681 -22.4866750
  43.1256380 123.2758522 -20.8937428  46.1590000 120.6090000 -18.7540000
  46.6310000 121.6200000 -18.2040000  46.2980000 119.3750000 -18.2640000
  45.8119272 118.6151272 -18.7183412  47.0680000 119.0830000 -17.0760000
  46.6015028 119.5298767 -16.1980588  47.1250000 117.5680000 -16.8810000
  47.0417803 117.0845358 -17.8543633  48.0810550 117.3073580 -16.4269906
  45.9650000 117.0850000 -15.9610000  46.1400006 117.5708380 -15.0010849
  45.0570098 117.4867088 -16.4107620  45.7630000 115.3120000 -15.7000000
  47.0510000 114.9060000 -14.4600000  46.8742064 115.4800498 -13.5504343
  47.0121453 113.8411837 -14.2303106  48.0334838 115.1550481 -14.8610010
  48.4420000 119.6820000 -17.2000000  48.8210000 120.5420000 -16.3780000
  49.1720000 119.2770000 -18.2540000  48.7903422 118.5733078 -18.8698360
  50.4920000 119.8270000 -18.5630000  51.2191397 119.4484676 -17.8446128
  50.9450000 119.4300000 -19.9750000  50.1762228 119.7627285 -20.6724042
  51.8769392 119.9549476 -20.1848079  51.1540000 117.9740000 -20.1300000
  51.2990000 117.2900000 -19.0980000  51.1750000 117.5190000 -21.2830000
  50.5000000 121.3470000 -18.5200000  51.3420000 121.9880000 -17.8810000
  49.5720000 121.9320000 -19.2640000  48.9248813 121.4149965 -19.8419655
  49.5360000 123.3780000 -19.3180000  50.5321032 123.7738954 -19.5158494
  48.6040000 123.8220000 -20.4390000  48.8009249 123.2034279 -21.3146074
  47.5756578 123.6698889 -20.1111668  48.8060000 125.2530000 -20.7880000
  47.9220257 125.8309147 -20.5183615  49.6728914 125.6473119 -20.2577930
  49.0360000 125.3530000 -22.2630000  49.0855161 126.4003702 -22.5607628
  49.9693316 124.8560558 -22.5276472  47.9380000 124.7090000 -22.9910000
  47.9326700 123.7001821 -23.0395532  46.9600000 125.3760000 -23.5870000
  46.9510000 126.6950000 -23.6200000  47.7007578 127.2131199 -23.1846668
  46.1943942 127.1804309 -24.0804390  45.9630000 124.7030000 -24.1630000
  45.9604274 123.6932438 -24.1409591  45.2151136 125.2061758 -24.6186081
  49.1220000 124.0040000 -17.9810000  49.3500000 125.2010000 -17.7850000
  48.5130000 123.2520000 -17.0620000  48.0942567 122.3593270 -17.2808341
  48.3620000 123.7740000 -15.7060000  48.3601464 124.8626567 -15.7600580
  47.0610000 123.2910000 -15.0350000  47.0169161 122.2068147 -15.1384374
  46.9760000 123.6780000 -13.5040000  47.0195589 124.7621322 -13.3997859
  46.0380320 123.3108633 -13.0874338  47.8117403 123.2281235 -12.9680443
  45.8900000 123.9200000 -15.7450000  45.7440552 124.9300010 -15.3619871
  46.1049586 123.9643925 -16.8126711  44.6660000 123.1290000 -15.5230000
  44.4501258 123.0845478 -14.4555160  43.8305259 123.5978101 -16.0429031
  44.8110303 122.1189380 -15.9061983  49.5690000 123.4180000 -14.8390000
  50.1230000 124.2890000 -14.1590000  49.9860000 122.1350000 -14.8300000
  49.5209535 121.4075259 -15.3540348  51.0980000 121.7580000 -13.9560000
  50.8826991 122.0777118 -12.9364270  51.3150000 120.2410000 -13.9580000
  52.0182653 120.0075618 -13.1586104  50.3550327 119.7704172 -13.7455980
  51.8620000 119.7090000 -15.2930000  51.0793193 119.8222927 -16.0431177
  52.7206603 120.3209305 -15.5693070  52.2830000 118.2510000 -15.2170000
  52.9351438 118.0257045 -16.0608302  52.8248294 118.0863843 -14.2856451
  51.0550000 117.3350000 -15.2620000  51.3886384 116.3189751 -15.0510987
  50.3671797 117.6603734 -14.4815293  50.3580000 117.3660000 -16.5850000
  50.9950497 117.0641240 -17.3082830  49.5599262 116.7475061 -16.5596313
  50.0483869 118.3073021 -16.7804204  52.3670000 122.5060000 -14.3630000
  53.3390000 122.5280000 -13.5930000  52.3510000 123.1600000 -15.5230000
  51.6131442 122.9924673 -16.1920299  53.4290000 124.0730000 -15.8950000
  54.3817920 123.6864320 -15.5332656  53.5070000 124.2200000 -17.4310000
  53.4348551 123.2180532 -17.8540803  52.6436727 124.8082166 -17.7420744
  54.7910000 124.8940000 -17.9300000  55.5101458 124.8576548 -17.1117035
  55.1609952 124.2988659 -18.7648779  54.6060000 126.3350000 -18.3780000
  53.8031611 126.3721435 -19.1143213  54.3324948 126.9381699 -17.5122747
  55.9050000 126.8920000 -19.0040000  55.6114611 127.8246465 -19.4857737
  56.5574754 127.1100716 -18.1585299  56.6450000 126.0180000 -20.0020000
  56.0407201 125.8161692 -20.7857154  57.4688101 126.5028299 -20.3281547
  56.9174627 125.1539162 -19.5556567  53.2400000 125.4330000 -15.2190000
  54.0370000 125.8320000 -14.3670000  52.2060000 126.1730000 -15.6150000
  51.5667991 125.8309122 -16.3182052  51.9880000 127.5100000 -15.0740000
  52.8352088 128.1532763 -15.3117648  50.7310000 128.1160000 -15.6830000
  50.7784863 127.9413382 -16.7578663  49.8801089 127.5778996 -15.2652294
  50.5700000 129.5900000 -15.4210000  50.5730820 129.7587092 -14.3441395
  51.3959423 130.1365251 -15.8762272  49.2570000 130.1220000 -15.9950000
  48.9130000 131.2940000 -15.8100000  48.5170000 129.2560000 -16.6840000
  47.6394895 129.5538258 -17.0857169  48.8364880 128.3051371 -16.8018496
  51.8560000 127.5090000 -13.5660000  51.8300000 128.5930000 -12.9770000
  51.7350000 126.3290000 -12.9470000  51.4618244 125.5064191 -13.4654932
  51.9610000 126.1990000 -11.5220000  51.5032480 127.0393235 -11.0000626
  51.3530000 124.9110000 -10.9950000  51.8479308 124.1483400 -11.5962424
  51.6844633 124.8286163  -9.9598937  49.8500000 124.7110000 -11.0620000
  49.4796309 124.8003844 -12.0832434  49.6100000 123.2960000 -10.5580000
  49.9797157 123.2059661  -9.5365780  48.5420061 123.0789740 -10.5777332
  50.1360575 122.5876678 -11.1980230  49.0860000 125.6780000 -10.2890000
  49.2918392 126.6828368 -10.6578262  48.0217360 125.4653406 -10.3900907
  49.3711713 125.6113946  -9.2390762  53.4510000 126.2130000 -11.1970000
  53.8590000 126.7730000 -10.1750000  54.2640000 125.5610000 -12.0290000
  53.9006989 124.9408923 -12.7386324  55.7080000 125.6810000 -11.8910000
  56.0403059 125.2350685 -10.9535476  56.4000000 124.9270000 -13.0770000
  56.1104089 123.8762524 -13.0641291  56.0984366 125.3748817 -14.0238693
  57.9140000 125.0390000 -12.9210000  58.1755364 126.0941481 -13.0007627
  58.1696449 124.6760912 -11.9254876  58.6810000 124.2510000 -13.9560000
  58.5279832 123.1776059 -13.8441524  58.4189919 124.5510560 -14.9706022
  60.1050000 124.5510000 -13.7280000  60.3234555 125.1868249 -12.9742737
  61.0950000 124.0280000 -14.4130000  62.3540000 124.3860000 -14.1100000
  62.5223953 125.0473545 -13.3654509  63.1263365 123.9921471 -14.6281466
  60.9040000 123.1440000 -15.3630000  59.9662905 122.8438786 -15.5882290
  61.6955248 122.7675410 -15.8648624  56.1330000 127.1410000 -11.8460000
  56.9860000 127.5370000 -11.0300000  55.5370000 127.9740000 -12.6920000
  54.8210297 127.6554661 -13.3291986  55.9400000 129.3790000 -12.7480000
  57.0251633 129.4425184 -12.6674697  55.5060000 130.0460000 -14.0590000
  54.5141842 130.4578785 -13.8725683  56.2106541 130.8599080 -14.2296354
  55.4600000 129.1530000 -15.2830000  56.4414339 128.7028818 -15.4322710
  54.7237867 128.3684178 -15.1083002  55.0740000 129.9410000 -16.5160000
  54.7000000 131.1420000 -16.3240000  55.1530000 129.3720000 -17.6410000
  55.3770000 130.2170000 -11.5890000  55.4540000 131.4530000 -11.6070000
  54.7490000 129.6010000 -10.5900000  54.5349250 128.6169679 -10.6671499
  54.2890000 130.3180000  -9.4060000  54.4771100 131.3861140  -9.5148408
  52.7840000 130.1020000  -9.2280000  52.5594792 129.0354532  -9.2409439
  52.4287293 130.5362398  -8.2934849  51.9520000 130.7410000 -10.3550000
  52.4140000 131.4750000 -11.4010000  53.4899764 131.6432720 -11.4463784
  51.3790000 131.8570000 -12.2010000  51.4654294 132.3972804 -13.0499561
  50.2070000 131.3910000 -11.6720000  48.9120000 131.5200000 -12.1200000
  48.7216664 132.0646170 -13.0448049  47.9370000 130.9450000 -11.3590000
  46.8986171 131.0518283 -11.6727654  48.2250000 130.2200000 -10.1850000
  47.4375056 129.7523843  -9.5939944  49.5080000 130.0860000  -9.7580000
  49.6937078 129.4713203  -8.8772150  50.5320000 130.6920000 -10.4940000
  55.0370000 129.9100000  -8.1460000  55.5000000 130.7170000  -7.3410000
  55.1480000 128.4890000  -7.9920000  54.6571343 127.8805558  -8.6314888
  55.9950000 127.8720000  -6.9470000  56.5855860 128.6587070  -6.4775328
  55.2000000 127.1500000  -5.8670000  54.5279204 127.8643959  -5.3915563
  54.6147110 126.3716798  -6.3566473  56.0970000 126.5220000  -4.8150000
  57.1430000 127.1260000  -4.5060000  55.7400000 125.4480000  -4.3040000
  56.8380000 126.8470000  -7.6960000  56.3310000 126.1640000  -8.5850000
  58.0310000 126.7020000  -7.4100000  58.3369523 127.2398548  -6.6117489
  59.0450000 125.9340000  -8.1700000  58.7453516 125.9031798  -9.2175496
  60.4520000 126.5500000  -8.0790000  60.6967599 126.6140282  -7.0187679
  61.1311166 125.8505673  -8.5665393  60.5970000 127.9320000  -8.7200000
  59.9395525 128.6174459  -8.1851846  61.6330760 128.2412788  -8.5821876
  60.2540000 127.9540000 -10.2040000  59.3990000 128.7720000 -10.6260000
  60.8490000 127.1540000 -10.9570000  59.0230000 124.4800000  -7.7210000
  59.9360000 123.7940000  -8.1770000  58.1960000 123.8280000  -6.9300000
  57.5623328 124.4517927  -6.4509928  58.1240000 122.3900000  -6.6240000
  59.1265981 122.0155569  -6.4173880  57.2330000 122.1160000  -5.3960000
  56.2368096 122.5167662  -5.5833240  57.1784316 121.0301878  -5.3176794
  57.7420000 122.6750000  -4.0720000  58.4510000 123.6930000  -4.0000000
  57.3440000 122.0400000  -2.9780000  57.6484262 122.3636308  -2.0709787
  56.7382705 121.2356493  -3.0568198  57.6160000 121.6350000  -7.8460000
  56.7180000 122.1230000  -8.5340000  58.2180000 120.4620000  -8.1220000
  58.9931011 120.1920909  -7.5333858  57.9080000 119.6310000  -9.2840000
  57.6676257 120.2738297 -10.1308113  59.0960000 118.7290000  -9.6720000
  59.6373443 118.5822746  -8.7373786  58.6953179 117.7743648 -10.0129187
  60.0520000 119.2910000 -10.7340000  59.4648989 119.8427064 -11.4681888
  61.0980000 120.2200000 -10.1160000  61.6858402 119.6688430  -9.3819913
  61.7563450 120.5980562 -10.8981484  60.5983540 121.0561368  -9.6267868
  60.7450000 118.1740000 -11.4790000  60.0006322 117.5493597 -11.9728021
  61.4169245 118.5968375 -12.2258782  61.3180851 117.5688506 -10.7765282
  56.6390000 118.7950000  -9.1630000  56.2980000 118.2810000  -8.1340000
  55.9260000 118.6780000 -10.3120000  56.2901983 119.2439609 -11.0650918
  54.6900000 117.9190000 -10.5460000  53.9146677 118.2677940  -9.8638697
  54.1940000 118.1000000 -11.9850000  54.3127704 119.1519374 -12.2446548
  54.8282776 117.4929865 -12.6310081  52.7250000 117.6880000 -12.1760000
  52.1850059 117.9449074 -11.2646791  52.3228260 118.2627494 -13.0102789
  52.5630000 116.2040000 -12.4590000  53.1045953 115.9555260 -13.3717071
  52.9769727 115.6364650 -11.6255553  51.0810000 115.8500000 -12.6320000
  50.5544084 116.1673965 -11.7319659  50.7023823 116.4066897 -13.4892307
  50.8580000 114.3870000 -12.8500000  51.2083775 113.8710081 -12.0555897
  49.8695453 114.2094614 -12.9574120  51.3455183 114.0927787 -13.6841815
  54.8960000 116.4480000 -10.2090000  53.9830000 115.7960000  -9.6930000
  56.1250000 115.9540000 -10.4950000  56.6994529 116.6320664 -10.9749262
  56.6730000 114.6100000 -10.2730000  56.4018136 113.9491968 -11.0963446
  58.2210000 114.6920000 -10.1920000  58.5918326 115.1578974 -11.1049743
  58.4020528 115.3557590  -9.3465747  58.9470000 113.3710000  -9.9650000
  58.9510000 112.5230000 -10.8920000  59.5600000 113.2090000  -8.8860000
  56.1150000 113.9100000  -9.0270000  55.6900000 112.7500000  -9.1100000
  56.1070000 114.6220000  -7.8870000  56.5093466 115.5483038  -7.9003351
  55.6630000 114.0820000  -6.6130000  55.3605122 113.0405999  -6.7229375
  56.8310000 114.1530000  -5.6040000  57.7221680 113.7319806  -6.0694690
  56.9769118 115.2207996  -5.4408629  56.5850000 113.4700000  -4.2780000
  56.7410000 112.2260000  -4.2110000  56.2920000 114.1830000  -3.2900000
  54.3830000 114.7650000  -6.0920000  53.3230000 114.1360000  -6.0780000
  54.4830000 116.0530000  -5.7010000  55.4172048 116.4322951  -5.7601269
  53.4330000 116.8810000  -5.0970000  53.2363888 116.5399940  -4.0805561
  53.8610000 118.3480000  -5.0460000  52.9863721 118.9374156  -4.7708372
  54.6211637 118.4430726  -4.2706211  54.3810000 118.8210000  -6.2780000
  54.6318431 119.7431199  -6.1864989  52.0210000 116.7680000  -5.7150000
  51.0530000 116.6350000  -4.9680000  51.8280000 116.8070000  -6.9620000
  52.6731912 116.8498047  -7.5132884  50.5300000 116.9440000  -7.6570000
  49.7809851 117.3635775  -6.9854119  50.6960000 117.8830000  -8.8510000
  51.6745319 117.6332704  -9.2611338  49.9244109 117.6465037  -9.5836798
  50.6470000 119.3730000  -8.5240000  51.0395731 119.5259490  -7.5187171
  51.4740000 120.1690000  -9.5160000  51.0817153 120.0169106 -10.5215249
  51.4246307 121.2282384  -9.2636559  52.5106776 119.8345686  -9.4765593
  49.2150000 119.8680000  -8.5180000  48.6444121 119.3219379  -7.7667710
  49.1988896 120.9322593  -8.2830664  48.7700522 119.7064117  -9.4998399
  49.8950000 115.5860000  -8.0240000  50.6090000 114.6590000  -8.4040000
  48.4810000 115.4010000  -7.9230000  47.5290000 116.3010000  -7.3550000
  47.6863961 117.2783478  -7.8111995  47.7309255 116.3629860  -6.2856624
  46.1580000 115.7360000  -7.6510000  45.7928055 116.0891816  -8.6153624
  45.4484213 116.0121943  -6.8710538  46.3960000 114.2210000  -7.6630000
  45.6951531 113.6902593  -8.3073811  46.3850780 113.7737650  -6.6690376
  47.7960000 114.1460000  -8.2500000  48.3120293 113.3264431  -7.7498615
  47.7890000 113.9000000  -9.7450000  47.9580000 114.8190000 -10.5440000
  47.5860000 112.6110000 -10.1730000  47.3380469 111.9040940  -9.4955765
  47.7700000 112.2040000 -11.5610000  48.2705438 112.9934444 -12.1216538
  48.6380000 110.9340000 -11.6180000  48.4059828 110.3805243 -12.5279076
  49.6903829 111.2178128 -11.6243597  48.3740000 110.1120000 -10.4810000
  48.9185605 109.3225413 -10.5235278  46.4820000 111.9460000 -12.3370000
  46.5280000 111.9170000 -13.5690000  45.4100000 111.5760000 -11.6310000
  45.4856617 111.4225340 -10.6355992  44.1060000 111.3250000 -12.2820000
  44.2557032 110.6277097 -13.1063023  43.0720000 110.7340000 -11.3240000
  42.9961530 111.3831590 -10.4516818  42.1096471 110.6984920 -11.8346037
  43.4240000 109.3390000 -10.8590000  44.1400000 109.1670000  -9.8760000
  42.9220000 108.3360000 -11.5610000  43.1263390 107.3839120 -11.2929073
  42.3367965 108.5271207 -12.3616938  43.6610000 112.6690000 -12.8420000
  44.0270000 113.6700000 -12.2460000  43.0130000 112.7590000 -14.0170000
  42.6860000 111.7580000 -15.0120000  42.3372483 110.8705190 -14.4839375
  43.6013903 111.5212111 -15.5543013  41.6240000 112.3560000 -15.9070000
  40.6280539 112.1667725 -15.5065212  41.6930292 111.9482338 -16.9154954
  41.9560000 113.8530000 -15.8980000  41.0523864 114.4440894 -16.0469793
  42.7186307 114.1705776 -16.6090826  42.4640000 114.0350000 -14.4770000
  43.2488685 114.7907019 -14.5085323  41.3680000 114.4750000 -13.4880000
  41.2420000 115.6620000 -13.2820000  40.5960000 113.5290000 -12.9440000
  40.7187707 112.5786269 -13.2630886  39.4780000 113.8190000 -11.9880000
  38.8778101 114.6786120 -12.2862256  38.5560000 112.5960000 -11.7750000
  37.9543575 112.7581210 -10.8806603  37.6380000 112.4010000 -12.9760000
  38.2389578 112.2383497 -13.8707040  36.9969454 111.5357360 -12.8072758
  37.0206697 113.2892646 -13.1101209  39.3160000 111.3060000 -11.4340000
  39.4970731 110.7960358 -12.3801765  40.2672122 111.6145231 -11.0002853
  38.6100000 110.3670000 -10.4830000  37.6588480 110.0576584 -10.9162638
  39.2323088 109.4890739 -10.3095735  38.4289850 110.8761469  -9.5363729
  40.0030000 114.3680000 -10.6470000  39.2780000 115.1830000 -10.0500000
  41.1460000 113.8910000 -10.1280000  41.6357066 113.1397301 -10.5926291
  41.6770000 114.3830000  -8.8520000  40.8597480 114.6394327  -8.1778779
  42.5260000 113.3000000  -8.1980000  43.3798930 113.1342154  -8.8548725
  42.8764657 113.6643406  -7.2323242  41.7760000 111.9940000  -8.0040000
  40.5280000 111.9490000  -8.1690000  42.4430000 111.0040000  -7.6560000
  42.4870000 115.6730000  -9.0100000  42.4020000 116.5810000  -8.1730000
  43.2950000 115.7620000 -10.0530000  43.4660903 114.9705652 -10.6567039
  44.0260000 116.9940000 -10.3070000  44.7258492 117.2054751  -9.4985517
  44.8250000 116.8190000 -11.6190000  45.3465967 115.8654970 -11.5361256
  44.1730586 116.8012110 -12.4923590  45.8710000 117.8580000 -11.8860000
  45.5370000 119.0230000 -12.5670000  44.5019868 119.1705299 -12.8753545
  46.5020000 119.9990000 -12.8590000  46.2147659 120.9150208 -13.3752394
  47.8000000 119.8000000 -12.4960000  48.5545414 120.5512540 -12.7292049
  48.1630000 118.6310000 -11.8240000  49.2016578 118.4819172 -11.5289333
  47.2050000 117.6550000 -11.5290000  47.5006648 116.7371422 -11.0208471
  43.0620000 118.1630000 -10.3530000  43.2980000 119.1990000  -9.7190000
  41.9360000 117.9990000 -11.0550000  41.7128124 117.1230253 -11.5055052
  41.0230000 119.1220000 -11.2360000  41.5452916 119.9489344 -11.7171342
  39.8390000 118.7130000 -12.1160000  39.4005726 119.6292275 -12.5114843
  40.2389553 118.1182741 -12.9372411  38.8370000 117.9640000 -11.4310000
  38.1294224 117.7432992 -12.0411023  40.5170000 119.6610000  -9.9080000
  40.2410000 120.8610000  -9.8110000  40.3760000 118.7930000  -8.8980000
  40.5488332 117.8125245  -9.0679876  39.9130000 119.1940000  -7.5750000
  39.1434313 119.9616193  -7.6563871  39.3240000 117.9920000  -6.8720000
  39.9943318 117.1507940  -7.0484284  39.2588123 118.1856164  -5.8013164
  37.9540000 117.6630000  -7.4070000  37.0390000 118.6450000  -7.6890000
  37.3289393 119.6800686  -7.5082582  35.7860000 118.3570000  -8.1860000
  35.0822613 119.1586760  -8.4099851  35.4190000 117.0400000  -8.3850000
  34.1930000 116.7360000  -8.8870000  33.6592210 117.5127879  -9.0694285
  36.3030000 116.0270000  -8.0890000  36.0313876 114.9807770  -8.2295155
  37.5740000 116.3620000  -7.5980000  38.2898446 115.5760296  -7.3573400
  41.0570000 119.8150000  -6.7810000  40.9210000 120.9220000  -6.2320000
  42.2170000 119.1580000  -6.7390000  42.3069577 118.1898907  -7.0124434
  43.4020000 119.8470000  -6.2250000  43.3883954 119.8485469  -5.1350864
  44.6470000 119.1490000  -6.6880000  44.5444967 118.0764427  -6.5230357
  44.8716739 119.3347014  -7.7383031  45.8270000 119.5820000  -5.9220000
  46.4050000 118.9380000  -4.8590000  45.9419710 118.0042116  -4.5400281
  47.4850000 119.6410000  -4.4120000  48.1052812 119.3580743  -3.6668129
  47.6030000 120.7800000  -5.1500000  48.5350000 121.8030000  -5.0670000
  49.3092349 121.7536216  -4.3013495  48.4150000 122.8320000  -5.9770000
  49.1290768 123.6547951  -5.9423240  47.3880000 122.8520000  -6.9590000
  47.3102608 123.6601621  -7.6862758  46.4660000 121.8500000  -7.0150000
  45.6799876 121.9186193  -7.7670483  46.5710000 120.7760000  -6.1120000
  43.4530000 121.3040000  -6.6440000  43.4760000 122.2170000  -5.8210000
  43.3280000 121.5360000  -7.9520000  43.2385476 120.7776333  -8.6130427
  43.3940000 122.9100000  -8.4720000  44.2150444 123.5304590  -8.1128122
  43.4500000 122.8620000 -10.0170000  42.6123479 122.2648361 -10.3773243
  43.3730000 124.2140000 -10.5950000  44.2106437 124.8116577 -10.2354735
  43.4147202 124.1478356 -11.6821900  42.4365509 124.6848129 -10.2958346
  44.6660000 122.0520000 -10.4170000  44.5805818 121.0434904 -10.0123839
  44.7288286 122.0026783 -11.5040693  45.5648038 122.5261690 -10.0227712
  42.2130000 123.7370000  -7.9770000  42.3140000 124.9410000  -7.7810000
  41.0490000 123.1040000  -7.8280000  40.9513313 122.1130162  -7.9968529
  39.8640000 123.8590000  -7.4400000  39.7424853 124.7442695  -8.0642045
  38.6370000 122.9730000  -7.6080000  38.7397851 122.0866175  -6.9820117
  37.7457105 123.5256470  -7.3108727  38.5459527 122.6716222  -8.6515425
  39.9850000 124.3320000  -5.9980000  39.5470000 125.4350000  -5.6240000
  40.5710000 123.4860000  -5.1690000  40.8758029 122.5751195  -5.4812359
  40.7590000 123.8300000  -3.7890000  39.8439655 124.2814547  -3.4055947
  41.0600000 122.5690000  -2.9760000  41.9785971 122.1105922  -3.3422535
  41.1803444 122.8335022  -1.9254496  40.2357661 121.8634198  -3.0803753
  41.8880000 124.8280000  -3.6010000  41.8640000 125.5770000  -2.6250000
  42.8930000 124.8560000  -4.4810000  42.9067194 124.2927181  -5.3192271
  44.0840000 125.6270000  -4.1470000  44.0146134 126.0008773  -3.1254813
  45.3190000 124.7440000  -4.2590000  45.2491185 124.1228664  -5.1519775
  46.1952385 125.3881040  -4.3327306  45.4830000 123.8340000  -3.0430000
  46.0180000 124.2250000  -1.9770000  45.0090000 122.6140000  -3.1770000
  45.0840422 121.9594489  -2.4114731  44.5722874 122.3376732  -4.0447709
  44.2460000 126.9080000  -4.9370000  45.2200000 127.6280000  -4.7110000
  43.3260000 127.2660000  -5.6690000  42.4687097 126.7406282  -5.7645888
  43.4560000 128.5180000  -6.4070000  44.4990772 128.7021941  -6.6642192
  42.6550000 128.4270000  -7.6800000  42.0575579 127.5328219  -7.5022147
  42.0105959 129.3056303  -7.6508065  43.3120000 128.3310000  -9.0330000
  43.8153800 129.2687530  -9.2682206  44.3180000 127.2180000  -9.0010000
  43.8152613 126.2797788  -8.7662796  44.8018138 127.1367523  -9.9743570
  45.0686943 127.4278671  -8.2390852  42.2090000 128.0800000 -10.0910000
  41.4979265 128.9060223 -10.0783077  42.6627373 128.0070177 -11.0793812
  41.6890038 127.1500697  -9.8609293  42.9170000 129.7050000  -5.6290000
  41.7800000 129.6390000  -5.1530000  43.6500000 130.8700000  -5.5950000
  44.9720000 131.1000000  -5.9610000  45.1033538 130.7344733  -6.9794482
  45.6083909 130.5283784  -5.2854600  45.2000000 132.5900000  -5.8450000
  44.9451794 133.0949289  -6.7767791  46.2374363 132.8042111  -5.5882106
  44.2580000 133.0040000  -4.7080000  43.9049115 134.0352183  -4.7120376
  44.7343072 132.7873331  -3.7518167  43.0900000 132.0570000  -4.9320000
  42.7557915 131.7204579  -3.9506018  41.9480000 132.7530000  -5.6420000
  42.1200000 133.8750000  -6.1020000  40.7570000 132.1740000  -5.6450000
  40.5757755 131.3448023  -5.0975621  39.6910000 132.6870000  -6.4950000
  40.0552098 133.5782650  -7.0059767  39.2550000 131.6440000  -7.5340000
  38.2436548 131.8545057  -7.8818054  40.2140000 131.7260000  -8.6970000
  41.2255611 131.5151408  -8.3500373  39.9305680 130.9953046  -9.4545298
  40.1792873 132.7268455  -9.1273515  39.2970000 130.2440000  -6.9180000
  40.3318752 130.0188998  -6.6601938  38.6914862 130.2550136  -6.0117267
  38.7710000 129.1850000  -7.8630000  39.3763422 129.1730717  -8.7693765
  38.8213886 128.2090657  -7.3801828  37.7359532 129.4091871  -8.1209113
  38.4990000 133.1250000  -5.6780000  38.3130000 132.7010000  -4.5420000
  37.7030000 134.0280000  -6.2800000  38.0093985 134.5428828  -7.0930898
  36.3930000 134.3240000  -5.7320000  36.5114786 134.9148419  -4.8237226
  35.5300000 135.1080000  -6.7140000  35.5240409 134.5697399  -7.6618079
  34.5187224 135.1399488  -6.3085411  36.0280000 136.5200000  -6.9390000
  36.9420000 137.0190000  -6.2510000  35.5160000 137.2080000  -7.8430000
  35.7320000 133.0020000  -5.3540000  35.8730000 131.9860000  -6.0490000
  35.0690000 132.9870000  -4.2040000  35.2455310 133.6782925  -3.4891218
  34.0860000 131.9370000  -3.9270000  34.5881576 130.9763533  -3.8125672
  33.3210000 132.2570000  -2.6130000  33.2715620 133.3450778  -2.5712646
  32.3116199 131.8499794  -2.6728841  34.0020000 131.7350000  -1.3660000
  34.8210000 130.7700000  -1.4440000  33.6760000 132.2590000  -0.2940000
  33.0840000 131.7950000  -5.0940000  32.5870000 130.6860000  -5.3570000
  32.7760000 132.8990000  -5.7980000  33.0494538 133.8300888  -5.5180073
  31.9710000 132.7480000  -7.0070000  30.9909547 132.3537084  -6.7384025
  31.7810000 134.0740000  -7.7240000  31.0648301 133.9477247  -8.5359449
  31.4042699 134.8160437  -7.0200500  33.0090000 134.5070000  -8.2470000
  32.8865274 135.3447813  -8.6994630  32.6200000 131.7560000  -7.9500000
  31.9540000 130.9420000  -8.5830000  33.9240000 131.7630000  -8.0190000
  34.5039485 132.3505645  -7.4371692  34.5730000 130.9380000  -9.0350000
  33.9724532 130.9150083  -9.9443482  35.9500000 131.5300000  -9.3710000
  36.3587787 131.9779131  -8.4652555  36.6128601 130.7355656  -9.7139148
  35.8300000 132.6020000 -10.4620000  35.0895352 133.3481517 -10.1737805
  37.1500000 133.2530000 -10.6210000  37.8909436 132.5075061 -10.9096871
  37.0868937 134.0197634 -11.3931348  37.4454681 133.7117463  -9.6774160
  35.3940000 131.9490000 -11.7520000  34.4282176 131.4650486 -11.6065531
  35.3068440 132.7058025 -12.5315864  36.1317969 131.2041593 -12.0502735
  34.6700000 129.5050000  -8.5370000  34.4890000 128.5460000  -9.2970000
  35.0130000 129.3550000  -7.2650000  35.3645220 130.1371750  -6.7313953
  34.9430000 128.0510000  -6.6160000  35.7446676 127.4036436  -6.9714688
  35.1000000 128.2390000  -5.0870000  34.1539656 128.6302962  -4.7128269
  35.2793651 127.2527209  -4.6590027  36.2460000 129.1910000  -4.6830000
  36.4245321 129.8917311  -5.4985998  35.9474471 129.7412617  -3.7907107
  37.5450000 128.3980000  -4.3900000  37.6735284 127.6595031  -5.1813292
  38.3787663 129.0998132  -4.4097853  37.5440000 127.7080000  -3.1010000
  36.6571061 127.3914254  -2.7358985  38.6460000 127.4870000  -2.3790000
  39.8350000 127.9460000  -2.7670000  39.9138870 128.4736127  -3.6246140
  40.6520442 127.7642500  -2.2017519  38.5590000 126.7740000  -1.2410000
  37.6644474 126.4125567  -0.9422785  39.3886509 126.6035592  -0.6907927
  33.6220000 127.3310000  -6.9400000  33.6090000 126.1290000  -7.1770000
  32.5020000 128.0390000  -6.8600000  32.5300001 129.0192401  -6.6182466
  31.1990000 127.4110000  -7.0530000  31.1443699 126.4758221  -6.4957236
  30.1180000 128.3740000  -6.5430000  30.3928600 129.3907277  -6.8237439
  28.7520000 128.0300000  -7.1450000  28.4762321 127.0135103  -6.8642842
  28.0026789 128.7263183  -6.7684904  28.8037444 128.1050523  -8.2311809
  29.9640000 128.3380000  -5.0110000  29.4301237 127.4190688  -4.7688384
  30.9699085 128.2939706  -4.5934968  29.2260000 129.5190000  -4.4230000
  28.2197796 129.5634177  -4.8397103  29.1657601 129.4080427  -3.3403371
  29.7595637 130.4383203  -4.6643709  31.0240000 127.0620000  -8.5230000
  30.6370000 125.9340000  -8.8920000  31.3430000 128.0170000  -9.3970000
  31.4642986 128.9804539  -9.1192546  31.4140000 127.6920000 -10.8200000
  30.4173305 127.5196793 -11.2262692  32.0410000 128.8620000 -11.5540000
  31.4316710 129.7304935 -11.3039272  33.0364198 128.9819009 -11.1263749
  32.1510000 128.7380000 -13.0710000  32.7286249 127.8398126 -13.2894254
  31.1534408 128.6409531 -13.4994385  32.8490000 129.9400000 -13.7210000
  33.5750000 129.8220000 -14.7190000  32.6410000 131.0970000 -13.1340000
  33.0685932 131.9328278 -13.5063674  32.0544892 131.1451450 -12.3131538
  32.1510000 126.3860000 -11.0440000  31.7360000 125.5810000 -11.8800000
  33.2010000 126.1030000 -10.2590000  33.4915878 126.6236787  -9.4437996
  33.9990000 124.9530000 -10.6650000  34.0508651 124.9182160 -11.7532092
  35.4070000 125.0290000 -10.1160000  35.3641571 125.1067298  -9.0296199
  35.9659519 124.1354896 -10.3940501  36.0940000 126.2470000 -10.6800000
  35.5019486 127.1488088 -10.5240614  37.4390000 126.3640000  -9.8910000
  38.0318385 125.4626917 -10.0468355  37.9957591 127.2306213 -10.2474934
  37.2282730 126.4803575  -8.8279123  36.3270000 126.0570000 -12.1830000
  35.3695543 125.9169527 -12.6847807  36.8236264 126.9384938 -12.5885024
  36.9537475 125.1802464 -12.3460637  33.3680000 123.6690000 -10.2040000
  33.6270000 122.5960000 -10.7500000  32.6200000 123.7620000  -9.0930000
  32.5507401 124.6509374  -8.6185606  31.9280000 122.5920000  -8.4990000
  32.5975620 121.7322158  -8.4753986  31.4960000 122.9170000  -7.0620000
  32.3117539 123.5257540  -6.6720470  30.5855599 123.5148023  -7.1047927
  31.2730000 121.7130000  -6.1420000  30.7625793 120.9348051  -6.7094366
  32.5910000 121.1680000  -5.6050000  33.1018142 121.9455388  -5.0370201
  32.3944228 120.3145290  -4.9561199  33.2207807 120.8535769  -6.4372348
  30.3530000 122.0790000  -4.9850000  29.3891742 122.4053053  -5.3757225
  30.2091608 121.2084148  -4.3450837  30.8012164 122.8856262  -4.4048662
  30.7390000 122.2480000  -9.3920000  30.4860000 121.0710000  -9.5620000
  30.0840000 123.2560000  -9.9880000  30.3999186 124.1975402  -9.8041610
  28.9170000 123.0670000 -10.8940000  28.1216279 122.5373474 -10.3696428
  28.3790000 124.4250000 -11.3560000  29.2442111 125.0132118 -11.6618036
  27.7482727 124.2295645 -12.2232301  27.5830000 125.1980000 -10.3140000
  26.5600560 124.8230262 -10.3468791  28.0210158 124.9724711  -9.3416930
  27.5780000 126.6930000 -10.5290000  28.5034163 127.0945924 -10.1161717
  27.5496111 126.8775952 -11.6028799  26.3950000 127.3710000  -9.8690000
  25.4846415 127.0076158 -10.3457597  26.3880553 127.0936962  -8.8148873
  26.4610000 128.8480000  -9.9910000  26.4670104 129.1051861 -10.9676877
  25.6566466 129.2593687  -9.5394567  27.3042751 129.1849635  -9.5489120
  29.3230000 122.2490000 -12.1220000  28.4490000 121.5340000 -12.6520000
  30.5860000 122.3320000 -12.5570000  31.2219933 122.9497352 -12.0732489
  31.0840000 121.6070000 -13.7650000  30.4655823 121.7608853 -14.6492953
  32.5500000 121.9920000 -14.0870000  33.1563780 121.8446447 -13.1933040
  33.0960000 121.1400000 -15.2130000  32.4903726 121.2871833 -16.1072333
  34.1262934 121.4286586 -15.4210203  33.0650092 120.0898498 -14.9226152
  32.7420000 123.4880000 -14.3750000  32.5966129 124.0088202 -13.4285806
  33.7740806 123.6124029 -14.7027699  31.8090000 124.0660000 -15.4170000
  30.7766789 123.9423746 -15.0896931  32.0232357 125.1265578 -15.5489824
  31.9541452 123.5459553 -16.3638824  30.9220000 120.1050000 -13.4890000
  31.2040000 119.7170000 -12.3430000  30.4770000 119.3040000 -14.4680000
  30.2644745 119.7233548 -15.3619093  30.2170000 117.8420000 -14.2910000
  30.2661017 117.5889327 -13.2319225  28.8380000 117.4630000 -14.8190000
  28.7522530 117.8362589 -15.8395021  28.7789024 116.3746176 -14.8245985
  27.7100000 118.0250000 -13.9800000  27.8900000 118.4320000 -12.8140000
  26.5660000 118.0930000 -14.4660000  31.2970000 117.0060000 -14.9810000
  31.1600000 115.7650000 -14.9470000  32.3200000 117.6270000 -15.5670000
  32.3316035 118.6355863 -15.5148623  33.3820000 116.9610000 -16.3120000
  33.3440296 115.8819099 -16.1629295  33.1760000 117.2640000 -17.8380000
  32.1654454 116.9693573 -18.1209564  33.3016580 118.3340292 -18.0033712
  34.1100000 116.5540000 -18.6230000  33.9658334 116.7539771 -19.5508065
  34.7560000 117.4400000 -15.8150000  34.9640000 118.6400000 -15.5890000
  35.6730000 116.4760000 -15.6360000  35.4072116 115.5016328 -15.6440245
  37.0560000 116.8100000 -15.3450000  37.0810124 117.4138651 -14.4379055
  37.8730000 115.5340000 -15.1070000  37.8649140 114.9231118 -16.0096906
  38.9002573 115.8007261 -14.8586054  37.4352870 114.9700331 -14.2833205
  37.6730000 117.6620000 -16.4740000  38.2160000 118.7430000 -16.1940000
  37.6120000 117.2070000 -17.7620000  37.2028970 116.3130819 -17.9936129
  38.2490000 117.9860000 -18.8420000  39.3082063 118.1224499 -18.6239115
  38.0900000 117.2900000 -20.2240000  37.0418797 117.0271925 -20.3670957
  38.5390000 118.2110000 -21.3470000  39.5872265 118.4738888 -21.2048337
  38.4188617 117.7032403 -22.3039993  37.9333120 119.1171839 -21.3385224
  38.9000000 115.9900000 -20.2670000  39.9523892 116.2736584 -20.2777575
  38.6792839 115.4496120 -19.3464759  38.6010000 115.0890000 -21.4730000
  38.8219311 115.6285804 -22.3939464  39.2195940 114.1930975 -21.4200915
  37.5488246 114.8045357 -21.4626659  37.6820000 119.3930000 -18.8420000
  38.3980000 120.4060000 -18.8030000  36.3740000 119.4650000 -18.8100000
  35.7595660 118.6669500 -18.8854086  35.7810000 120.7860000 -18.7580000
  36.1394898 121.3830834 -19.5964960  34.2520000 120.6970000 -18.8380000
  33.9506139 120.1401262 -19.7252188  33.8538080 120.2070440 -17.9494696
  33.7090000 122.1140000 -18.9210000  34.1222194 122.6893206 -18.0925335
  34.0787553 122.5180882 -19.8633884  32.2190000 122.2440000 -18.8970000
  31.4600000 121.2650000 -18.7210000  31.7730000 123.5010000 -19.0440000
  30.7798878 123.6848912 -19.0403110  32.4324429 124.2575164 -19.1576631
  36.2310000 121.5410000 -17.5070000  36.3730000 122.7740000 -17.5530000
  36.4720000 120.8330000 -16.3860000  36.3462671 119.8322203 -16.3337456
  36.8600000 121.5500000 -15.1660000  36.2367223 122.4388242 -15.0679408
  36.6950000 120.6940000 -13.9040000  35.8181093 120.0569539 -14.0194741
  37.5813270 120.0720471 -13.7787044  36.5170000 121.5960000 -12.6570000
  37.5023501 121.8639143 -12.2756760  35.9842069 122.4998691 -12.9523880
  35.7600000 120.9030000 -11.6100000  35.9780494 121.3393639 -10.6352488
  34.6905014 120.9737734 -11.8081500  36.1360000 119.5050000 -11.5870000
  37.1111166 119.2719353 -11.4648207  35.2670000 118.5230000 -11.7260000
  33.9760000 118.7690000 -11.9770000  33.6541704 119.7224958 -12.0628567
  33.3291924 118.0000786 -12.0794666  35.6870000 117.2690000 -11.6050000
  36.6600992 117.0822414 -11.4092983  35.0313994 116.5078023 -11.7092339
  38.3070000 122.0530000 -15.2750000  38.6170000 123.2060000 -14.9170000
  39.1600000 121.2590000 -15.9280000  38.8448486 120.3541209 -16.2473316
  40.5710000 121.6410000 -16.1790000  41.0427000 121.9621111 -15.2502988
  41.3470000 120.4400000 -16.7330000  40.7415580 120.1164970 -17.5796906
  42.3171378 120.7843932 -17.0912262  41.5460000 119.2670000 -15.7710000
  40.6743494 119.1959735 -15.1203993  41.7180000 117.9600000 -16.5330000
  42.5897877 118.0301020 -17.1835157  41.8577119 117.1422808 -15.8259522
  40.8298021 117.7706639 -17.1357909  42.7310000 119.5060000 -14.8480000
  42.5599195 120.4094967 -14.2627441  42.8465729 118.6552061 -14.1765136
  43.6369570 119.6248230 -15.4423248  40.5880000 122.8090000 -17.1720000
  41.5720000 123.5660000 -17.1230000  39.5840000 122.9490000 -18.0570000
  38.8230469 122.2870087 -18.1100775  39.6330000 124.0350000 -19.0460000
  40.6642024 124.2145601 -19.3501035  38.8060000 123.6550000 -20.3000000
  39.2453875 122.7352857 -20.6862169  37.7945724 123.4535877 -19.9470873
  38.7570000 124.7260000 -21.4370000  38.0506744 125.4867224 -21.1045748
  39.7568199 125.1570390 -21.4886494  38.3210000 124.1880000 -22.9120000
  37.4699979 124.7877376 -23.2348144  39.1634735 124.3640206 -23.5808458
  37.9550000 122.7840000 -22.9840000  37.0186023 122.5602049 -22.6787552
  38.7520000 121.7870000 -23.3800000  39.9890000 121.9960000 -23.8480000
  40.3494812 122.9373814 -23.9108845  40.5559459 121.2113150 -24.1359954
  38.2860000 120.5360000 -23.3420000  37.3458302 120.3602164 -23.0175297
  38.8758836 119.7714238 -23.6379042  39.1620000 125.3290000 -18.4110000
  39.5990000 126.4270000 -18.7750000  38.2600000 125.2500000 -17.4460000
  37.7632646 124.4108090 -17.1831089  37.9120000 126.4960000 -16.7780000
  37.7686862 127.2926783 -17.5079753  36.6240000 126.3050000 -16.0130000
  35.9276661 125.7268708 -16.6204413  36.8318356 125.7669453 -15.0881208
  35.7350000 127.8180000 -15.5280000  34.7286012 127.1984026 -14.9179518
  39.0490000 126.9560000 -15.8740000  39.2670000 128.1660000 -15.7140000
  39.7990000 126.0050000 -15.3070000  39.5920994 125.0269972 -15.4512289
  40.8600000 126.3570000 -14.3670000  40.4705180 127.0213825 -13.5956383
  41.4090000 125.0840000 -13.6900000  41.3850632 124.2628312 -14.4063854
  42.4379086 125.2636502 -13.3782743  40.5380000 124.7090000 -12.4330000
  40.9369872 125.2592550 -11.5808677  39.5347015 125.0694509 -12.6600824
  40.4790000 123.2060000 -12.0920000  41.2420000 122.4250000 -12.7710000
  39.7280000 122.8220000 -11.1700000  41.9190000 127.1670000 -15.0770000
  42.1060000 128.3440000 -14.7500000  42.5310000 126.5890000 -16.1330000
  42.3561695 125.6193633 -16.3551222  43.5220000 127.3190000 -16.9340000
  44.4183243 127.5033483 -16.3417858  43.9060000 126.5040000 -18.1530000
  43.9717064 125.5064557 -17.7186185  43.0557776 126.5480500 -18.8336479
  45.1830000 126.8080000 -18.9180000  45.2660343 126.0564849 -19.7031313
  45.2410000 128.2180000 -19.5470000  45.1584857 128.9701053 -18.7623804
  46.1880316 128.3436087 -20.0718374  44.4174580 128.3364421 -20.2511665
  46.4330000 126.6210000 -18.0560000  46.4846736 125.5889830 -17.7090558
  47.3199500 126.8500164 -18.6467388  46.3862394 127.2905774 -17.1971760
  43.0200000 128.7060000 -17.3440000  43.7770000 129.6850000 -17.2820000
  41.7350000 128.8330000 -17.6960000  41.1360810 128.0258110 -17.7952031
  41.1790000 130.1540000 -18.0080000  41.8636158 130.6997967 -18.6572352
  39.8250000 130.0100000 -18.7300000  39.9847468 129.5310776 -19.6960298
  39.2066104 129.3667345 -18.1039777  39.1110000 131.3660000 -18.9390000
  39.6710000 132.2620000 -19.6160000  37.9680000 131.5270000 -18.4490000
  41.0000000 131.0350000 -16.7770000  40.8450000 132.2600000 -16.9140000
  41.0090000 130.4520000 -15.5900000  41.0029373 129.4456553 -15.5043680
  40.9650000 131.2520000 -14.3670000  40.3852233 132.1396804 -14.6199461
  40.2630000 130.4880000 -13.2360000  40.7477927 129.5173959 -13.1310996
  40.3280000 131.2280000 -11.9200000  39.8429636 132.1985801 -12.0239939
  39.8179106 130.6480407 -11.1508728  41.3700758 131.3718938 -11.6345674
  38.7570000 130.3110000 -13.4420000  38.2772510 131.2721149 -13.2570678
  38.5918809 130.0165298 -14.4783988  38.1420000 129.2260000 -12.4850000
  38.3063311 129.5200305 -11.4483510  37.0716806 129.1401485 -12.6724703
  38.6209631 128.2644454 -12.6696806  42.3680000 131.6640000 -13.9280000
  42.6020000 132.8330000 -13.5940000  43.3260000 130.7150000 -13.9170000
  43.1323311 129.7436916 -14.1148679  44.7040000 131.1000000 -13.6190000
  44.7399680 131.5245544 -12.6157258  45.6680000 129.9220000 -13.6840000
  45.9596772 129.7992838 -14.7270553  46.5435257 130.1868028 -13.0911810
  45.0640000 128.5820000 -13.1510000  45.0101686 128.5698455 -12.0623976
  44.0734667 128.3942404 -13.5653577  46.2330000 127.2420000 -13.7230000
  47.7890000 128.0310000 -13.4010000  47.8667773 128.2621762 -12.3386407
  48.6016347 127.3634278 -13.6874835  47.8559616 128.9528533 -13.9787577
  45.1890000 132.1220000 -14.6140000  46.0420000 132.9430000 -14.2920000
  44.6630000 132.0690000 -15.8440000  44.0344379 131.3265432 -16.1156006
  45.0370000 133.0630000 -16.8490000  46.1205384 133.0603293 -16.9674765
  44.3870000 132.7660000 -18.2260000  43.3389620 132.5034428 -18.0818494
  44.4540590 133.6839354 -18.8099501  45.0760000 131.6310000 -19.0110000
  46.0680000 131.0480000 -18.5490000  44.5270000 131.3040000 -20.1730000
  44.9347786 130.5677095 -20.7312945  43.7036182 131.7927456 -20.4943580
  44.6470000 134.4650000 -16.3860000  45.4850000 135.3570000 -16.3150000
  43.3860000 134.6770000 -15.9990000  42.7198454 133.9184597 -15.9681139
  42.9050000 136.0570000 -15.6780000  43.4639627 136.7927153 -16.2562585
  41.4210000 136.1850000 -16.0280000  40.8799331 135.5492698 -15.3271484
  41.1495608 137.2267048 -15.8569099  41.0560000 135.7930000 -17.4550000
  41.9759120 135.4951269 -17.9581246  40.3810688 134.9390351 -17.3974344
  40.3930000 136.9080000 -18.2350000  39.5466507 137.2639664 -17.6475651
  41.1211019 137.7115080 -18.3460945  39.9100000 136.4720000 -19.6030000
  39.3636598 137.3021309 -20.0507674  40.7828337 136.2407244 -20.2135507
  39.0290000 135.2830000 -19.5310000  38.2199378 135.4972307 -18.9656477
  38.7313172 135.0277226 -20.4617623  39.5351951 134.5135437 -19.1165093
  43.1370000 136.4530000 -14.2150000  42.5290000 137.4450000 -13.7880000
  43.9950000 135.7300000 -13.4920000  44.4451566 134.9365799 -13.9255239
  44.3020000 136.0230000 -12.0630000  43.3808277 136.2153905 -11.5129757
  45.0060000 134.8290000 -11.4310000  45.9062973 134.5766731 -11.9912634
  45.2715133 135.0465460 -10.3964583  44.0080000 133.3280000 -11.3860000
  44.9265225 132.5679573 -10.7964664  45.1880000 137.2670000 -11.9670000
  45.7820000 137.6300000 -12.9950000  45.2660000 137.9070000 -10.7920000
  44.6728415 137.6661195 -10.0108221  46.2070000 139.0470000 -10.6370000
  47.0117265 138.8419803 -11.3430321  45.5050000 140.3550000 -11.0560000
  44.7121570 140.5720642 -10.3401905  46.4960000 141.5220000 -11.0890000
  47.2889392 141.3058513 -11.8049796  45.9761632 142.4324563 -11.3872250
  46.9292831 141.6595273 -10.0983171  45.0750000 140.2440000 -12.4180000
  44.6374233 141.0564646 -12.6826284  46.7270000 139.1540000  -9.2070000
  47.2210000 138.1420000  -8.6950000  46.6720000 140.3470000  -8.6160000
  46.3839066 141.1339814  -9.1797036  47.0620000 140.5970000  -7.2040000
  47.7959465 139.8528352  -6.8947421  47.6650000 141.9670000  -7.0350000
  46.9606936 142.7097198  -7.4097251  47.8474081 142.1424258  -5.9747863
  48.8860000 142.0720000  -7.7480000  49.2526055 142.9509602  -7.6270489
  45.8300000 140.4260000  -6.3110000  44.7410000 140.2860000  -6.8800000
  46.0020000 140.3560000  -4.9880000  46.9427443 140.4043749  -4.6236384
  44.8780000 140.1840000  -4.0230000  43.9272542 140.1199712  -4.5522278
  45.0880000 138.8860000  -3.2340000  46.1698287 138.8424956  -3.1080904
  44.6129675 138.9876400  -2.2582370  44.6000000 137.5980000  -3.9080000
  43.6101861 137.7811934  -4.3261022  45.5450000 137.1540000  -5.0170000
  46.5349707 136.9701574  -4.5995569  45.1673207 136.2383198  -5.4719602
  45.6099262 137.9353395  -5.7742275  44.4210000 136.4910000  -2.8780000
  43.6866495 136.8010207  -2.1345513  44.0742964 135.5846750  -3.3744603
  45.3737312 136.2937111  -2.3865946  44.8110000 141.3780000  -3.0690000
  45.6120000 141.3800000  -2.1140000  43.8790000 142.3260000  -3.2590000
  43.2889568 142.3124291  -4.0786123  43.7120000 143.4130000  -2.3070000
  44.6826277 143.7390990  -1.9333149  43.0320000 144.5930000  -2.9910000
  43.0120682 145.4585213  -2.3287501  43.5537129 144.8528617  -3.9120795
  41.3180000 144.2810000  -3.4580000  41.0988772 145.4794815  -3.9914094
  42.8710000 142.9480000  -1.1010000  42.0480000 142.0180000  -1.1740000
  43.0420000 143.6610000   0.0050000  43.7404447 144.3901329   0.0303024
  42.2780000 143.3950000   1.2150000  42.3274524 142.3360030   1.4683372
  42.8520000 144.1960000   2.3670000  43.9341634 144.0686102   2.3951819
  42.4208382 143.8451374   3.3046006  42.4850000 145.9610000   2.1960000
  40.8030000 143.7420000   0.9970000  40.4510000 144.6830000   0.2730000
  39.9350000 142.9400000   1.6250000  40.2621284 142.1920139   2.2196453
  38.4940000 143.0630000   1.3930000  38.2807036 142.9110386   0.3349303
  37.7160000 142.0210000   2.2040000  38.0857267 141.0365666   1.9171335
  37.9306396 142.1961345   3.2582096  36.1970000 142.0850000   1.9730000
  35.8500043 143.0638434   2.3039991  36.0173330 141.9790712   0.9031398
  35.4420000 141.0000000   2.7230000  35.7815845 140.0250154   2.3734482
  35.6490928 141.0956092   3.7888663  33.9340000 141.1320000   2.4820000
  33.6256967 142.1185419   2.8280992  33.7592112 141.0529389   1.4090147
  33.1400000 140.0830000   3.1950000  33.3014879 140.1563634   4.1893034
  32.1574015 140.2158634   3.0027825  33.4252278 139.1687864   2.8741299
  38.0110000 144.4790000   1.7000000  37.2770000 145.0860000   0.9010000
  38.4680000 145.0350000   2.8360000  39.2890735 144.6282032   3.2607988
  37.8000000 146.1270000   3.5310000  36.7247049 145.9527142   3.5692646
  38.3350000 146.2130000   4.9690000  39.1663887 146.9174827   4.9445819
  37.5266423 146.6265189   5.5720423  38.8130000 144.8670000   5.5940000
  38.8169626 145.0195932   6.6732592  38.1291689 144.0555933   5.3448088
  40.2070000 144.4760000   5.1560000  40.8200000 145.1940000   4.3850000
  40.6830000 143.3180000   5.5900000  41.6100580 143.0229928   5.3186412
  40.1165582 142.7357135   6.1901562  37.9430000 147.4580000   2.8080000
  36.9320000 148.1270000   2.5590000  39.1610000 147.8090000   2.3690000
  39.9492197 147.2331231   2.6281825  39.4220000 149.0610000   1.6020000
  38.5897898 149.7426990   1.7775353  40.7090000 149.7300000   2.0770000
  40.6014096 150.0262228   3.1204445  40.9067555 150.6120879   1.4679731
  42.1690000 148.6610000   2.0310000  39.4500000 148.7760000   0.0910000
  39.0880000 149.7010000  -0.6600000  39.8240000 147.5580000  -0.3460000
  40.1295277 146.8949849   0.3519707  39.8490000 147.1390000  -1.7800000
  40.1555680 146.0944601  -1.8352407  38.4800000 147.2850000  -2.4590000
  38.3621542 148.3457541  -2.6803876  38.5420554 146.7244085  -3.3917306
  37.2830000 146.7990000  -1.6540000  37.2640607 145.7091663  -1.6561426
  37.3752914 147.1582501  -0.6290494  35.9820000 147.3050000  -2.2270000
  35.3930000 146.7010000  -3.1180000  35.5180000 148.4300000  -1.7080000
  34.6511308 148.8201526  -2.0492041  36.0327806 148.8935061  -0.9729732
  40.8750000 147.9720000  -2.5460000  40.7550000 148.0240000  -3.7840000
  41.8900000 148.5230000  -1.8690000  41.9471425 148.3637429  -0.8732735
  42.8560000 149.4730000  -2.4890000  42.6390960 149.5650175  -3.5532296
  42.7640000 150.8680000  -1.8460000  42.9317877 150.7308492  -0.7777602
  43.5761649 151.4601291  -2.2677480  41.4360000 151.5960000  -2.0640000
  41.3079197 151.7432299  -3.1363897  40.6488419 150.9406428  -1.6911888
  41.3550000 152.9410000  -1.3540000  40.3110000 153.6330000  -1.4630000
  42.3360000 153.3070000  -0.6730000  44.3000000 148.9790000  -2.5060000
  44.9210000 149.1840000  -3.5600000  44.8200000 148.3490000  -1.4440000
  44.2283424 148.1374266  -0.6532552  46.2310000 148.0130000  -1.3580000
  46.8284035 148.5917353  -2.0624670  46.8020000 148.2150000   0.0500000
  47.8272979 147.8451025   0.0563568  46.7880000 149.6750000   0.4710000
  45.7629145 150.0454959   0.4653311  47.2019022 149.7681375   1.4750466
  47.3891256 150.2601398  -0.2249597  46.0930000 147.4110000   0.9950000
  46.4609352 147.5475632   1.8711133  46.3800000 146.5650000  -1.8200000
  45.7020000 145.6800000  -1.3060000  47.1820000 146.3270000  -2.8610000
  47.4271085 147.0513538  -3.5207975  47.6250000 144.9640000  -3.1340000
  46.7443747 144.3297420  -3.2355634  48.4680000 144.8440000  -4.4160000
  48.6866584 143.7843025  -4.5476396  47.8390423 145.1893380  -5.2365205
  49.7760000 145.6370000  -4.4080000  49.5376450 146.6733502  -4.1686969
  50.3983323 145.2161753  -3.6182479  50.5290000 145.5820000  -5.7310000
  51.6750000 146.0930000  -5.8090000  49.9790000 145.0150000  -6.6990000
  48.3620000 144.4460000  -1.8920000  49.0240000 145.2040000  -1.1710000
  48.2370000 143.1490000  -1.6200000  47.6824590 142.5259019  -2.1895019
  48.8860000 142.6050000  -0.4260000  49.5044609 143.3643235   0.0525740
  47.8720000 142.0350000   0.6080000  47.4648326 141.1052930   0.2105582
  48.5400000 141.7610000   1.9850000  48.9470234 142.6903960   2.3833160
  47.7973486 141.3640991   2.6771266  49.3445976 141.0361448   1.8612791
  46.6650000 142.9700000   0.7890000  46.3876347 143.3292380  -0.2020183
  45.8529977 142.3682115   1.1971695  46.9230000 144.1470000   1.6960000
  47.7346253 144.7495559   1.2882125  46.0211178 144.7547842   1.7688421
  47.1999907 143.7885289   2.6874003  49.8620000 141.5090000  -0.8380000
  50.8510000 141.2630000  -0.1440000  49.5440000 140.7870000  -1.9230000
  48.6279977 140.8601024  -2.3421602  50.4880000 139.8290000  -2.4870000
  51.4339759 140.3365175  -2.6758249  50.7420000 138.6620000  -1.5430000
  51.0835084 139.0362088  -0.5778886  49.4650000 137.8980000  -1.3590000
  49.1230952 137.5230576  -2.3236859  49.6366652 137.0595369  -0.6840112
  48.7056098 138.5552314  -0.9353563  51.7340000 137.7900000  -2.0930000
  51.8864143 137.0583440  -1.4904640  49.9520000 139.3410000  -3.8260000
  48.9160000 139.8100000  -4.3280000  50.6930000 138.4000000  -4.4250000
  51.4879761 137.9744861  -3.9699722  50.3720000 137.9860000  -5.7830000
  49.3331888 138.2343288  -6.0004932  51.2730000 138.6670000  -6.8360000
  51.0054609 138.2774880  -7.8182441  51.1110000 140.1670000  -6.8290000
  51.3788215 140.5573124  -5.8471510  51.7622989 140.6068353  -7.5842840
  50.0746734 140.4220805  -7.0504989  52.6370000 138.3330000  -6.5450000
  53.2129866 138.7485807  -7.1908580  50.5150000 136.4830000  -5.9440000
  51.1190000 135.7900000  -5.1150000  50.0050000 136.0050000  -7.0880000
  49.5204936 136.6298623  -7.7164108  50.0410000 134.5840000  -7.4170000
  49.5347146 134.0140244  -6.6379607  49.3390000 134.3180000  -8.7530000
  49.2402732 133.2381988  -8.8642725  48.3482591 134.7694080  -8.7004315
  50.0990000 134.8900000  -9.9610000  50.2456978 135.9561687  -9.7881852
  51.0682171 134.3937469 -10.0105292  49.3590000 134.6870000 -11.2720000
  49.1318225 133.6274798 -11.3899246  48.4300032 135.2565525 -11.2460314
  50.2150000 135.1600000 -12.4520000  51.1582157 134.6146635 -12.4195528
  49.6834651 134.9111874 -13.3705108  50.4880000 136.6300000 -12.4170000
  50.9809077 136.8606997 -11.5661655  51.0533074 136.8864810 -13.2137089
  49.6141422 137.1355116 -12.4474893  51.4480000 134.0460000  -7.4290000
  51.6760000 132.8930000  -7.0400000  52.4050000 134.8730000  -7.8600000
  52.1397897 135.7934807  -8.1801220  53.8080000 134.4710000  -7.9870000
  53.8904499 133.5368286  -8.5425402  54.5780000 135.5740000  -8.7560000
  54.7184438 136.4477256  -8.1196209  55.5501860 135.1604450  -9.0241916
  53.8370000 136.0270000 -10.0820000  53.0470000 136.9940000 -10.1110000
  54.1350000 135.3440000 -11.1630000  53.6983298 135.5805314 -12.0424725
  54.7995229 134.5852459 -11.1100623  54.4530000 134.1560000  -6.6330000
  55.4280000 133.3920000  -6.5840000  53.9510000 134.7450000  -5.5370000
  53.1445285 135.3460048  -5.6291758  54.5540000 134.5730000  -4.1830000
  55.6392131 134.5194825  -4.2698773  54.1940000 135.7480000  -3.2730000
  53.1267409 135.6765081  -3.0633668  54.7549365 135.6206579  -2.3471305
  54.5030000 137.1130000  -3.8690000  53.7346738 137.3066011  -4.6175281
  54.4070221 137.8326834  -3.0560159  55.8760000 137.2490000  -4.5060000
  56.8770000 137.1880000  -3.7650000  55.9390000 137.4130000  -5.7390000
  54.0670000 133.2660000  -3.5430000  54.7300000 132.8090000  -2.6000000
  53.0100000 132.6470000  -4.0710000  52.5650811 133.0401296  -4.8880653
  52.4080000 131.4300000  -3.4550000  52.1684676 131.5739041  -2.4014275
  51.1420000 130.9800000  -4.2130000  51.3564835 130.9969093  -5.2815557
  50.7110000 129.5770000  -3.8040000  50.4958825 129.5594120  -2.7355826
  49.8162407 129.2949589  -4.3589408  51.5121021 128.8714992  -4.0244613
  50.0060000 131.9920000  -4.0270000  49.6463732 131.8772306  -3.0044555
  50.4438920 132.9827459  -4.1485423  48.8520000 131.8310000  -4.9870000
  48.4132726 130.8405923  -4.8657118  48.0975738 132.5898943  -4.7795879
  49.2107923 131.9461055  -6.0097994  53.4590000 130.3250000  -3.4160000
  54.2600000 130.2720000  -4.3610000  53.4890000 129.5130000  -2.3500000
  52.8771974 129.7239801  -1.5745747  54.4120000 128.3570000  -2.2240000
  54.5180808 127.8721840  -3.1944635  55.7950000 128.7970000  -1.7440000
  56.5491780 128.0855139  -2.0803069  56.0285493 129.7863437  -2.1373876
  55.9250000 128.8870000  -0.2480000  55.3090000 129.9120000   0.4480000
  54.7258357 130.6523109  -0.0996853  55.4270000 130.0040000   1.8270000
  54.9282542 130.8106438   2.3642887  56.1720000 129.0790000   2.5150000
  56.2763377 129.1577489   3.5971332  56.7860000 128.0540000   1.8390000
  57.3740951 127.3188804   2.3884029  56.6600000 127.9520000   0.4620000
  57.1413190 127.1313994  -0.0700212  53.7960000 127.3400000  -1.2650000
  53.0560000 127.7910000  -0.3670000  54.0570000 126.0370000  -1.4460000
  54.6684114 125.7428715  -2.1941737  53.4450000 125.0190000  -0.6200000
  52.5157295 125.4051015  -0.2010954  53.1310000 123.7590000  -1.4260000
  52.3749321 124.0063433  -2.1711724  54.0427499 123.4350884  -1.9278899
  52.6520000 122.7140000  -0.5960000  52.4650208 121.9398279  -1.1320001
  54.3310000 124.6460000   0.5570000  55.5250000 124.3940000   0.3810000
  53.7270000 124.6130000   1.7520000  52.8139646 125.0338434   1.8487293
  54.3510000 124.0430000   2.9330000  55.3874669 123.7855134   2.7149721
  54.3290000 125.0470000   4.0890000  53.5669596 125.7737727   3.8075838
  54.0236324 124.5362959   5.0022535  55.6520000 125.7650000   4.3270000
  56.1069883 125.9889477   3.3621508  55.4380000 127.0690000   5.1060000
  54.9834372 126.8458010   6.0712221  56.3978951 127.5612550   5.2621641
  54.7803868 127.7278537   4.5389399  56.6900000 124.9150000   5.0670000
  56.9076168 124.0189162   4.4858149  57.6049695 125.4922714   5.2000032
  56.2969068 124.6282538   6.0423734  53.6750000 122.7560000   3.3620000
  54.0820000 122.1600000   4.3760000  52.6270000 122.3200000   2.6410000
  52.3170130 122.8407819   1.8330436  51.8940000 121.1180000   3.0100000
  52.4676975 120.5574921   3.7481065  50.5430000 121.4550000   3.6020000
  50.0501011 120.5400091   3.9305445  50.6740868 122.1224264   4.4537384
  49.7510000 122.0900000   2.6260000  48.8932663 122.3045850   2.9999599
  51.6860000 120.2120000   1.8110000  51.5920000 120.6800000   0.6750000
  51.6090000 118.9040000   2.0770000  51.7302540 118.5229683   3.0044760
  51.3990000 117.9790000   0.9730000  52.1364567 118.1511314   0.1890181
  51.5520000 116.5080000   1.4900000  52.5286604 116.3812894   1.9570955
  50.7706151 116.2901544   2.2180666  51.4260000 115.5510000   0.3070000
  50.4047893 115.6233544  -0.0671584  52.1194548 115.8876912  -0.4636241
  51.7300000 114.1160000   0.6650000  52.7544162 113.9938535   1.0167821
  51.0401963 113.7302024   1.4156201  51.5610000 113.3390000  -0.5750000
  50.6380249 112.9759430  -0.7658036  52.5150000 113.1170000  -1.4500000
  52.2340000 112.3870000  -2.5420000  51.3019109 112.0215631  -2.6752882
  52.9560818 112.2068648  -3.2248241  53.7230000 113.6060000  -1.3130000
  53.9452856 114.1770298  -0.5101213  54.4261530 113.4095912  -2.0109241
  50.0210000 118.2160000   0.3570000  49.8430000 118.1340000  -0.8690000
  49.0290000 118.5270000   1.1970000  49.1667134 118.5427368   2.1974433
  47.6740000 118.7230000   0.6800000  47.4350517 117.9036325   0.0020326
  46.6160000 118.7610000   1.7980000  46.7424715 117.8472892   2.3787208
  46.8519397 119.6230374   2.4219583  45.1680000 118.8620000   1.3160000
  45.0583069 119.8044446   0.7794682  45.0032539 118.0320364   0.6288914
  44.1460000 118.7980000   2.4430000  42.9220000 118.8820000   2.1700000
  44.5650000 118.6510000   3.6110000  47.6100000 119.9700000  -0.2090000
  46.8640000 120.0130000  -1.2070000  48.3650000 121.0090000   0.1390000
  48.8828587 121.0253353   1.0059803  48.4590000 122.1650000  -0.7440000
  49.2550883 121.9275841  -1.4496743  47.5062812 122.2055024  -1.2720016
  48.7400000 123.5330000  -0.1180000  48.5660000 123.7590000   1.0620000
  49.1120000 124.5000000  -0.9370000  49.1480000 124.5200000  -2.3390000
  48.3094365 123.9264765  -2.7031996  50.0835068 124.0590431  -2.6559303
  49.0530000 125.9720000  -2.7490000  48.0121702 126.2773591  -2.8563694
  49.5804644 126.1449472  -3.6870682  49.7370000 126.7110000  -1.5920000
  49.4129096 127.7385527  -1.4270761  50.8194419 126.6877616  -1.7180123
  49.3340000 125.8460000  -0.4090000  50.1981800 125.7819895   0.2522064
  48.1940000 126.4290000   0.3270000  48.3610000 127.4970000   0.9280000
  47.0130000 125.8990000   0.0990000  46.9821275 125.0976728  -0.5150204
  45.7650000 126.3970000   0.6420000  45.9475894 127.3024449   1.2207312
  44.8080000 126.7210000  -0.4650000  45.3296020 127.3766745  -1.1622241
  44.5609331 125.7838950  -0.9638909  43.5780000 127.3710000  -0.0120000
  42.7371204 127.0463037  -0.6248578  43.3854421 127.1191999   1.0308903
  43.7630000 129.1100000  -0.1610000  43.4880000 129.4840000  -1.8820000
  42.4845255 129.1680615  -2.1671678  43.5895529 130.5574285  -2.0418091
  44.2215228 128.9555338  -2.4909081  45.2070000 125.3210000   1.5500000
  45.2960000 124.1220000   1.2670000  44.6740000 125.7440000   2.6690000
  44.5458010 126.7188218   2.9000559  44.2550000 124.7480000   3.6350000
  43.6581893 123.9888426   3.1294347  45.4130000 124.0550000   4.3660000
  46.0145425 124.8014722   4.8846770  45.0132931 123.3445405   5.0895896
  46.0347416 123.5261223   3.6436254  43.3830000 125.4330000   4.6690000
  43.4390000 126.6780000   4.8830000  42.5040000 124.6060000   5.2240000
  42.4738591 123.6515678   4.8949863  41.6240000 124.9860000   6.3060000
  41.3846382 126.0493682   6.3132943  40.3190000 124.1920000   6.2740000
  40.5421086 123.1250791   6.2755619  39.7212380 124.4389481   7.1513810
  39.7613471 124.4447292   5.3721960  42.3430000 124.6460000   7.5890000
  42.6850000 123.4720000   7.8090000  42.5240000 125.6290000   8.4540000
  42.4007197 126.5893738   8.1666266  42.9530000 125.3660000   9.8260000
  42.9353412 124.2913239  10.0072698  44.3830000 125.8870000  10.0870000
  44.4313957 126.9603123   9.9032673  44.6005525 125.6883811  11.1364386
  45.4020000 125.1800000   9.2180000  45.8300000 123.9110000   9.5420000
  45.4534535 123.4362097  10.4480278  46.7050000 123.2570000   8.7520000
  47.0425312 122.2501885   8.9979778  47.1860000 123.8970000   7.5960000
  48.0900000 123.2500000   6.7650000  48.3194334 122.3702018   7.0730829
  46.7710000 125.1690000   7.2630000  47.1498411 125.6740475   6.3744580
  45.8790000 125.7880000   8.0610000  45.5176270 126.7839239   7.8047868
  41.9580000 126.0220000  10.7570000  41.2960000 127.0080000  10.3880000
  41.8290000 125.4350000  11.9440000  42.3791133 124.6078432  12.1264453
  40.8970000 125.8920000  12.9790000  40.2722065 126.7113339  12.6234382
  39.9830000 124.7390000  13.4380000  39.5889196 124.2396206  12.5528898
  40.7520000 123.7100000  14.3140000  41.1460087 124.2085789  15.1995943
  40.0740984 122.9124428  14.6180598  41.5757548 123.2865924  13.7393212
  38.8340000 125.3120000  14.1870000  38.2782891 125.9892761  13.5384751
  38.1779310 124.5071129  14.5184058  39.2020300 125.8603888  15.0541358
  41.6820000 126.4610000  14.1560000  42.7200000 125.9060000  14.5320000
  41.1810000 127.5630000  14.7240000  40.4274286 128.0327984  14.2428359
  41.7190000 128.1760000  15.9230000  42.7868442 127.9795960  16.0190905
  41.5070000 129.6940000  15.8110000  42.1450460 130.1932586  16.5402032
  41.8037677 129.9915613  14.8052733  40.0750000 130.1300000  16.0420000
  39.2340000 129.3690000  16.4890000  39.8060000 131.3970000  15.7430000
  38.8707417 131.7556280  15.8725288  40.5381107 131.9952089  15.3876679
  41.1260000 127.5920000  17.2040000  40.3420000 126.6450000  17.1590000
  41.5390000 128.0600000  18.3790000  42.7400000 128.7630000  18.6930000
  42.5150006 129.8280926  18.7482563  43.4644598 128.5859835  17.8980647
  43.1900000 128.1950000  20.0200000  43.8020901 128.9154341  20.5626044
  43.7555005 127.2744395  19.8755045  41.8710000 127.9180000  20.7510000
  41.4264709 128.7846241  21.2403419  41.9845702 127.1111224  21.4749820
  40.9860000 127.4630000  19.6020000  41.1019898 126.3827472  19.5142585
  39.5260000 127.7960000  19.8460000  38.8170000 126.9800000  20.4490000
  38.9340000 127.7980000  18.7810000  39.2803853 127.7309415  17.8346281
  37.5160000 128.0630000  18.9800000  37.1390196 127.4942002  19.8299717
  37.3130000 129.5640000  19.2630000  37.6797438 130.1569604  18.4251479
  36.2590272 129.7857217  19.4305736  38.0520000 130.0400000  20.4830000
  39.3760000 130.4570000  20.4120000  39.7100000 130.8190000  21.6450000
  40.7251822 131.1830212  21.8030903  38.6900000 130.6610000  22.4990000
  38.6694238 130.8614678  23.4886914  37.6250000 130.1560000  21.7670000
  36.6783287 129.9383043  22.2614930  36.6730000 127.5620000  17.7830000
  35.5120000 127.9470000  17.6110000  37.2640000 127.4730000  17.7180000
  38.2675744 127.3749689  17.6603146  36.4440000 126.6440000  16.8630000
  36.9666544 125.6961754  16.7343142  35.5033299 126.4715248  17.3859641
  36.1430000 127.2450000  15.4720000  35.3740000 126.6710000  14.7050000
  36.7350000 128.3690000  15.1530000  37.2817812 128.8539913  15.8500747
  36.5400000 129.0030000  13.8770000  35.5602685 128.7535769  13.4695525
  36.6190000 130.4930000  14.0600000  36.0188739 130.7235762  14.9402173
  37.6537910 130.7844636  14.2398793  36.0940000 131.2360000  12.8990000
  36.8540000 131.3650000  11.7260000  37.8322653 130.8875346  11.6701137
  36.3700000 132.0950000  10.6380000  36.9687012 132.1977212   9.7329547
  35.1150000 132.6850000  10.7110000  34.6360000 133.3900000   9.6300000
  35.2488696 133.4061083   8.8912639  34.3470000 132.5620000  11.8970000
  33.3610595 133.0223963  11.9606950  34.8580000 131.8470000  12.9880000
  34.2802607 131.7719450  13.9092405  37.5190000 128.4630000  12.8580000
  38.6400000 128.1160000  13.1910000  37.0030000 128.1890000  11.6760000
  36.0382858 128.4291138  11.4977553  37.7560000 127.5230000  10.6200000
  38.6608054 127.0450249  10.9954548  36.9250000 126.4760000   9.8660000
  35.9364684 126.8781515   9.6442376  37.6380000 126.1290000   8.5600000
  38.6264946 125.7263268   8.7809834  37.0568968 125.3853335   8.0146746
  37.7399938 127.0274371   7.9513050  36.6460000 125.2400000  10.7130000
  36.0937076 125.5288021  11.6072418  36.0552111 124.5289564  10.1355183
  37.5892678 124.7770389  11.0028511  38.2350000 128.5990000   9.6650000
  37.4080000 129.3170000   9.0700000  39.5670000 128.7200000   9.5390000
  40.1412009 128.1251933  10.1191704  40.2330000 129.6670000   8.6420000
  39.5480068 130.4441433   8.3029842  41.3570000 130.3210000   9.4350000
  41.9131089 129.5825913  10.0125766  42.0313291 130.8200744   8.7390797
  40.8970000 131.3570000  10.3990000  39.9900000 132.3400000  10.0550000
  39.8020000 133.1400000  11.0910000  39.1067877 133.9775104  11.0330767
  40.5710000 132.7180000  12.0800000  40.6588706 133.1578684  12.9849279
  41.2370000 131.5830000  11.6880000  41.8871186 131.0623128  12.3910874
  40.8060000 129.0030000   7.3730000  41.4020000 127.9020000   7.4390000
  40.7000000 129.7200000   6.2360000  40.1852465 130.5888918   6.2235440
  41.2880000 129.2390000   4.9750000  41.5573533 128.1891452   5.0905545
  40.3270000 129.3690000   3.7970000  39.8850720 130.3651208   3.8202858
  40.8934341 129.2448656   2.8740466  39.2220000 128.3220000   3.8590000
  39.6865783 127.3479931   4.0125528  38.6377873 128.5882339   4.7398599
  38.3270000 128.2630000   2.6690000  37.5330000 129.2270000   2.5310000
  38.4600000 127.2710000   1.8610000  42.5570000 130.0120000   4.6830000
  42.5210000 131.2090000   4.3410000  43.6760000 129.3250000   4.7730000
  43.6412518 128.3156337   4.7645438  44.9800000 129.9720000   4.8930000
  44.8771061 131.0514015   5.0043755  45.7410000 129.4050000   6.0960000
  45.7800233 128.3193483   6.0069053  47.0900000 129.9340000   6.1500000
  47.0517863 131.0196415   6.2395703  47.6101456 129.5168920   7.0123052
  47.6235733 129.6636907   5.2387747  44.9820000 129.7250000   7.3940000
  44.0808569 129.1125091   7.4239477  45.6228610 129.4690417   8.2377310
  44.5960000 131.2050000   7.4770000  43.9547125 131.4616086   6.6337905
  44.0615037 131.3899174   8.4087825  45.4967171 131.8181415   7.4475715
  45.7660000 129.7190000   3.6220000  46.1760000 128.5720000   3.3610000
  46.0470000 130.7920000   2.8640000  45.5904101 131.6694641   3.0681612
  46.9810000 130.7410000   1.7370000  47.0518454 129.7212319   1.3586442
  46.4980000 131.6430000   0.6140000  45.5617288 131.1898731   0.2881604
  46.3055623 132.6528600   0.9762851  47.4700000 131.7010000  -0.5600000
  48.4856299 131.9184075  -0.2293481  47.4260000 130.3130000  -1.1840000
  46.4107108 130.0950489  -1.5153367  48.1021149 130.2764864  -2.0381874
  47.7336271 129.5723104  -0.4458639  47.2260000 132.7790000  -1.5830000
  47.2818239 133.7558370  -1.1026120  47.9820875 132.7158024  -2.3655848
  46.2372412 132.6466771  -2.0222558  48.3720000 131.1880000   2.1750000
  48.5620000 132.3660000   2.4670000  49.3520000 130.2650000   2.1470000
  49.1074684 129.2976556   1.9903207  50.7570000 130.5950000   2.3890000
  50.8382031 131.2907240   3.2241487  51.5190000 129.3120000   2.7440000
  52.5822469 129.5496472   2.7776164  51.0920000 128.7400000   4.0660000
  50.0288901 128.5016567   4.0329944  51.6609484 127.8331267   4.2708846
  51.2759276 129.4696378   4.8546063  51.2950000 128.2980000   1.7680000
  51.7810162 127.5066910   2.0113487  51.4550000 131.2880000   1.2100000
  51.2670000 130.9140000   0.0540000  52.3010000 132.2800000   1.5190000
  52.3109370 132.6036974   2.4756716  53.1620000 132.9600000   0.5460000
  53.4586848 132.3037397  -0.2721685  52.4590000 134.1990000  -0.0460000
  52.9949000 134.5095746  -0.9429135  51.0070000 133.8880000  -0.4030000
  50.4703048 133.5777766   0.4935605  50.5355489 134.7788092  -0.8180823
  50.9773727 133.0851334  -1.1396336  52.5450000 135.3720000   0.9350000
  53.5912593 135.6114688   1.1249954  52.0456994 136.2413953   0.5072730
  52.0593358 135.0991362   1.8718973  54.5020000 133.3660000   1.1790000
  54.6970000 133.2760000   2.3980000  55.4350000 133.8340000   0.3110000
  55.1623355 133.9975991  -0.6476390  56.7920000 134.1900000   0.7150000
  57.0804678 133.5645180   1.5597827  57.8160000 133.9950000  -0.4120000
  57.3690618 134.4212404  -1.3101451  58.6787326 134.5925138  -0.1174328
  58.2490000 132.6060000  -0.6880000  58.2280000 131.6500000   0.3130000
  57.8886283 131.9251799   1.3116002  58.6310000 130.3620000   0.0550000
  58.6325498 129.6121739   0.8461133  59.0390000 130.0190000  -1.2280000
  59.4360000 128.7350000  -1.5120000  59.3934730 128.1521060  -0.7504058
  59.0540000 130.9520000  -2.2350000  59.3695048 130.6799278  -3.2422408
  58.6660000 132.2390000  -1.9620000  58.6818029 132.9917942  -2.7501315
  56.9670000 135.6500000   1.0620000  57.8410000 135.9950000   1.8480000
  56.2600000 136.5160000   0.3520000  55.5902556 136.1705688  -0.3204724
  56.4620000 137.9520000   0.4480000  56.8529163 138.1871513   1.4379432
  57.4460000 138.4750000  -0.6040000  58.3716354 137.9089709  -0.4995520
  57.0120724 138.2829865  -1.5852939  57.7450000 139.9770000  -0.4610000
  56.8303304 140.5226644  -0.6927987  58.0261930 140.1638670   0.5753944
  58.8600000 140.4450000  -1.3800000  59.7360965 139.8157189  -1.2232864
  58.5283919 140.3541814  -2.4143537  59.2210000 141.9050000  -1.0860000
  58.3390402 142.5134765  -1.2860094  59.4804612 141.9783001  -0.0298721
  60.3640000 142.3970000  -1.9150000  60.1236168 142.3295654  -2.8936563
  60.5589477 143.3601745  -1.6817827  61.1814596 141.8335746  -1.7294988
  55.0880000 138.5750000   0.3230000  54.4270000 138.4200000  -0.7100000
  54.6500000 139.2640000   1.3550000  55.1384913 139.2163678   2.2377269
  53.4340000 140.0580000   1.2820000  53.0250153 140.0437593   0.2717387
  52.3660000 139.5320000   2.2510000  52.7575991 139.5487601   3.2680886
  51.4794783 140.1635274   2.1930965  52.1014658 138.5096728   1.9808740
  53.8060000 141.4980000   1.5840000  54.5130000 141.7680000   2.5570000
  53.3320000 142.4120000   0.7540000  52.7882966 142.1125123  -0.0427390
  53.5840000 143.8330000   0.9210000  54.4899556 143.9903567   1.5063055
  53.7690000 144.4800000  -0.4460000  52.9784919 144.1652741  -1.1272810
  53.7610669 145.5664297  -0.3582075  55.3240000 144.0550000  -1.2540000
  55.1119676 144.7757996  -2.3514463  52.4320000 144.5140000   1.6640000
  51.2960000 144.0350000   1.6770000  52.7540000 145.6310000   2.3230000
  53.7333197 145.8528123   2.4317728  51.7670000 146.5090000   2.9610000
  52.2732285 147.3927673   3.3493133  50.6780000 146.9610000   1.9710000
  49.9592253 146.1606658   1.7951386  50.1737530 147.8042971   2.4428951
  51.2420000 147.4210000   0.6170000  51.6650000 146.6060000  -0.2090000
  51.1920000 148.7200000   0.3640000  51.5492915 149.0749845  -0.5114591
  50.7968060 149.3496865   1.0476794  51.1120000 145.8530000   4.1820000
  49.9220000 146.0680000   4.4290000  51.8840000 145.1010000   4.9740000
  52.8612166 144.9762006   4.7513517  51.3440000 144.4030000   6.1400000
  50.3303105 144.7499139   6.3404584  51.3040000 142.8860000   5.8910000
  52.3556963 142.6855635   5.6864045  51.0246909 142.4259565   6.8388642
  50.4420000 142.2980000   4.7630000  50.7015365 142.7835187   3.8222486
  50.6890000 140.8020000   4.6460000  50.4292339 140.3157008   5.5862837
  50.0740755 140.3933091   3.8441644  51.7409800 140.6232119   4.4235739
  48.9460000 142.5870000   4.9530000  48.7831167 143.6645962   4.9718365
  48.3832837 142.1493636   4.1284237  48.6081011 142.1524893   5.8938101
  52.1500000 144.6870000   7.4010000  53.2270000 144.1220000   7.6060000
  51.6080000 145.5260000   8.2690000  50.7893999 146.0776120   8.0551836
  52.2340000 145.6990000   9.5650000  53.3106639 145.8139380   9.4397671
  51.6920000 146.9340000  10.2650000  50.6406688 146.7498736  10.4861320
  52.2299370 147.1253752  11.1934931  51.7920000 148.1440000   9.3980000
  50.7950000 148.6120000   8.8610000  53.0230000 148.6370000   9.2180000
  53.1566070 149.4553068   8.6412653  53.8128548 148.1885284   9.6597050
  52.0010000 144.4650000  10.4240000  51.2180000 143.5650000  10.0830000
  52.7120000 144.4290000  11.5340000  53.3495989 145.1849517  11.7391927
  52.6530000 143.3140000  12.4520000  51.8937625 142.6057791  12.1202159
  53.9850000 142.6000000  12.5160000  54.6793344 143.4172338  12.3207361
  54.1323510 142.2336439  13.5319581  54.2420000 141.4630000  11.5210000
  53.3679046 140.8118641  11.5120444  54.4940000 141.9800000  10.1360000
  55.3682841 142.6308925  10.1440692  54.6715633 141.1422742   9.4616207
  53.6255726 142.5431378   9.7942251  55.4120000 140.6480000  12.1110000
  55.1287918 140.2611723  13.0899060  55.6477554 139.8166147  11.4466815
  56.2870697 141.2897107  12.2137585  52.2390000 143.8130000  13.8350000
  52.6670000 144.8790000  14.2910000  51.3610000 143.0650000  14.4870000
  50.9821763 142.2372672  14.0494496  50.8900000 143.4190000  15.8100000
  51.3682571 144.3414807  16.1392396  49.3610000 143.5930000  15.8460000
  48.8784470 142.8476256  15.2138133  48.9070000 143.4030000  17.2960000
  49.3888122 144.1483643  17.9287636  47.8250263 143.5201924  17.3568245
  49.1835279 142.4050025  17.6360476  48.9470000 144.9680000  15.3120000
  49.5687833 145.7115475  15.8106216  49.1564037 144.9783255  14.2423538
  47.4630000 145.3000000  15.5470000  47.2529285 145.2903189  16.6165214
  47.2427995 146.2880980  15.1429290  46.8405486 144.5570951  15.0482551
  51.3310000 142.3190000  16.7510000  50.9130000 141.1660000  16.5960000
  52.1700000 142.6690000  17.7220000  52.6566604 143.5534044  17.6889865
  52.4090000 141.7980000  18.8480000  52.1757420 142.3434782  19.7624088
  51.7497654 140.9341556  18.7626655  53.8270000 141.3240000  18.9120000
  54.7720000 142.0630000  18.5050000  54.0300000 140.1350000  19.4200000
  53.2586801 139.5817538  19.7650848  55.3640000 139.5940000  19.5310000
  55.9832157 139.9917326  18.7269603  56.0210000 139.9710000  20.9020000
  56.0500935 141.0551570  21.0108871  55.4423361 139.5397186  21.7188504
  57.4430000 139.4180000  20.9390000  57.3767271 138.3337707  20.8486915
  57.9755045 139.8219143  20.0779574  58.1890000 139.7730000  22.2040000
  58.3215835 140.8498543  22.3084288  57.6926040 139.3807961  23.0916184
  59.5160000 139.1430000  22.0880000  59.6854048 138.5779098  21.2681986
  60.4890000 139.2940000  22.9570000  61.6550000 138.6620000  22.7390000
  61.7671621 138.0846913  21.9178823  62.4137293 138.7672624  23.3972927
  60.3780000 140.0630000  24.0130000  59.5180183 140.5657471  24.1796638
  61.1529864 140.1490941  24.6549366  55.1230000 138.1030000  19.3670000
  54.2110000 137.5610000  19.9860000  55.9630000 137.4170000  18.6270000
  57.2660000 137.7660000  18.1660000  57.9730279 137.6226703  18.9831098
  57.2602503 138.8153202  17.8710541  57.5310000 136.8410000  17.0000000
  58.6016777 136.6970188  16.8550254  57.0908143 137.2361845  16.0844853
  56.8420000 135.5360000  17.4200000  57.4241248 134.9039540  18.0906322
  56.5345998 134.9555775  16.5501066  55.6180000 136.0700000  18.1460000
  54.8281579 136.1853141  17.4037396  55.1510000 135.1250000  19.2380000
  55.5960000 135.2020000  20.3830000  54.2610000 134.2140000  18.8370000
  53.8792976 134.2922840  17.9051876  53.7800000 133.1470000  19.6880000
  54.5076956 132.9710105  20.4802032  52.4280000 133.4820000  20.3300000
  52.5728390 134.2948473  21.0416180  51.7413018 133.8034117  19.5469035
  51.8770000 132.3400000  21.0120000  51.0331700 132.5774507  21.4033667
  53.6530000 131.8450000  18.9020000  53.4920000 131.8220000  17.6600000
  53.6490000 130.7380000  19.6730000  53.6851470 130.8279744  20.6783344
  53.6080000 129.3980000  19.1000000  53.3253916 129.4679547  18.0496010
  54.9850000 128.7490000  19.1920000  55.0729891 127.9929967  18.4117327
  56.0670000 129.7790000  19.0160000  55.9799364 130.5351411  19.7962372
  57.0424304 129.2974230  19.0846903  55.9638081 130.2518791  18.0393540
  55.0710000 128.1800000  20.5040000  55.9253447 127.7561009  20.6135674
  52.6220000 128.4470000  19.7700000  52.6990000 127.2240000  19.5110000
  51.7380000 128.9490000  20.6370000  51.9086394 129.8244358  21.1109132
  50.5600000 128.1790000  21.0120000  50.8889128 127.2429665  21.4633943
  49.6490000 128.9140000  22.0120000  50.2616383 129.1395787  22.8848618
  49.3449849 129.8441617  21.5319228  48.4060000 128.1360000  22.4490000
  47.8134054 127.9259610  21.5585978  48.7526413 127.1984218  22.8836102
  47.5490000 128.8800000  23.4650000  46.4990000 128.3410000  23.8970000
  47.9300000 130.0080000  23.8440000  49.8230000 127.7740000  19.7390000
  49.7590000 128.5450000  18.7720000  49.2980000 126.5510000  19.7240000
  49.6020971 125.8508771  20.3854016  48.3090000 126.1720000  18.7220000
  48.1347100 125.0966234  18.7578798  46.9730000 126.8980000  18.9950000
  46.8227553 127.0300179  20.0664929  47.0022611 127.8736231  18.5098161
  45.7540000 126.1960000  18.4740000  45.2340000 125.0460000  19.0450000
  44.1810000 124.6610000  18.3410000  43.6337060 123.7616938  18.6235185
  43.9890000 125.5210000  17.3500000  43.2520959 125.4859466  16.6601859
  44.9660000 126.4830000  17.4100000  44.9896773 127.2826513  16.6696633
  48.7830000 126.4820000  17.3010000  47.9560000 126.7260000  16.4060000
  50.0860000 126.5250000  17.0470000  50.7924884 126.3742074  17.7528576
  50.5180000 126.8470000  15.6980000  50.0763587 127.7941692  15.3882860
  52.0370000 126.9720000  15.6300000  52.3922884 127.3769711  16.5775589
  52.4582542 125.9780198  15.4795068  52.4460000 127.8280000  14.5640000
  53.4041925 127.8849425  14.5490146  50.0400000 125.7760000  14.7160000
  50.2010000 124.5710000  14.9340000  49.4790000 126.2210000  13.6100000
  49.3531777 127.2075325  13.4338705  48.9830000 125.2700000  12.6150000
  48.3364875 124.5289983  13.0851460  48.1770000 126.0220000  11.5630000
  48.7916894 126.8107868  11.1293279  47.8341726 125.3535725  10.7732063
  46.9650000 126.6830000  12.1170000  46.0880000 126.1790000  13.0890000
  46.3060079 125.1984285  13.5121453  45.0820000 127.0930000  13.3070000
  44.3286132 126.9852798  13.9710061  45.2790000 128.1860000  12.4900000
  44.5390000 129.3440000  12.3670000  43.6636507 129.4599501  13.0060758
  44.9490000 130.2800000  11.4480000  44.3723024 131.1945043  11.3094300
  46.0830000 130.0850000  10.6920000  46.4044565 130.8322583   9.9664862
  46.8560000 128.9280000  10.8290000  47.7408463 128.8197032  10.2017683
  46.4510000 127.9600000  11.7400000  50.1130000 124.5000000  11.9420000
  49.9580000 123.3210000  11.6080000  51.2540000 125.1730000  11.7010000
  51.2471514 126.1623186  11.9042270  52.4760000 124.5860000  11.1650000
  52.2352901 123.6416065  10.6768620  53.1470000 125.5070000  10.1440000
  53.4877443 126.4116673  10.6475570  54.0001119 124.9985921   9.6947546
  52.2910000 125.9390000   9.0430000  51.9850000 125.0610000   8.0330000
  52.3720488 124.0421886   8.0507892  51.1890000 125.4720000   7.0000000
  50.9300536 124.7778268   6.2005183  50.7090000 126.7790000   6.9700000
  50.1012864 127.1163635   6.1303752  51.0050000 127.6550000   8.0120000
  50.6032226 128.6682333   8.0177692  51.7900000 127.2420000   9.0110000
  52.0492347 127.9261660   9.8189692  53.4610000 124.3170000  12.2950000
  54.1910000 125.2450000  12.7040000  53.5830000 123.0750000  12.7800000
  52.9640000 121.8490000  12.3740000  53.3418092 121.5811387  11.3872828
  51.8868741 122.0068888  12.3195029  53.3460000 120.8420000  13.4350000
  53.3231281 119.8287665  13.0338345  52.6748697 120.9084171  14.2913143
  54.7700000 121.2590000  13.8220000  55.5411870 120.8939250  13.1437008
  55.0168435 120.9671242  14.8427725  54.6710000 122.7730000  13.7250000
  54.3696442 123.1394567  14.7063218  55.9900000 123.4090000  13.3320000
  56.2580000 123.6090000  12.1300000  56.8120000 123.7700000  14.3230000
  56.5301831 123.6506279  15.2855118  58.1080000 124.3330000  14.0570000
  58.7605434 124.0439255  14.8808461  58.4708823 123.8845244  13.1321836
  58.1310000 125.8380000  13.9160000  59.2260000 126.4190000  13.9040000
  56.9670000 126.4970000  13.8150000  56.0963152 126.0067810  13.9622839
  56.9130000 127.9130000  13.4580000  57.9246620 128.3181059  13.4809868
  56.3220000 128.1490000  12.0620000  55.4674133 127.4813884  11.9521109
  55.9772727 129.1830488  12.0594890  57.2780000 127.9350000  10.9140000
  57.5600000 126.6510000  10.4500000  57.0932928 125.7945119  10.9365306
  58.4210000 126.4570000   9.3850000  58.6404191 125.4549102   9.0165261
  59.0100000 127.5690000   8.7780000  59.8810000 127.4220000   7.7160000
  60.0177640 126.5049397   7.4672115  58.7320000 128.8470000   9.2350000
  59.1911290 129.7162056   8.7640619  57.8720000 129.0130000  10.2880000
  57.6418927 130.0146697  10.6510545  56.0840000 128.6820000  14.4760000
  55.3490000 128.1080000  15.3020000  56.2310000 130.0020000  14.4100000
  56.8064253 130.4041071  13.6838493  55.5860000 130.8950000  15.3470000
  54.8686886 130.3560170  15.9659192  56.5560000 131.6360000  16.2590000
  57.2750639 132.1879254  15.6536692  56.0028801 132.3319032  16.8897753
  57.0849371 130.9190034  16.8868858  54.8290000 131.9060000  14.5200000
  55.1640000 132.1460000  13.3590000  53.8000000 132.5010000  15.0980000
  53.5735559 132.3379922  16.0686961  52.8980000 133.3210000  14.3090000
  53.3175793 133.4804652  13.3157109  51.5010000 132.6140000  14.1570000
  50.7811322 133.2831388  13.6856796  51.5813662 131.6976084  13.5723054
  50.9310000 132.2330000  15.4620000  50.9680000 131.0070000  16.0870000
  51.4481513 130.1862895  15.5540940  50.3550000 131.0970000  17.3160000
  50.2375222 130.3386793  17.9726949  49.8800000 132.3740000  17.4800000
  49.1600000 132.9290000  18.5100000  48.9047612 132.2947968  19.3589630
  48.8070000 134.2470000  18.4060000  48.2554653 134.7117655  19.2232530
  49.1270000 135.0040000  17.3010000  48.8442908 136.0543985  17.2314436
  49.8270000 134.4420000  16.2330000  50.0637742 135.0704106  15.3744321
  50.2110000 133.1020000  16.3240000  52.8370000 134.6820000  14.9650000
  53.3670000 134.8820000  16.0530000  52.1880000 135.6280000  14.2830000
  51.8007533 135.4196129  13.3737618  52.0650000 136.9850000  14.7900000
  51.6887994 136.9490127  15.8123880  53.3820000 137.7250000  14.7860000
  53.6913296 137.8597672  13.7495381  53.2820000 139.0870000  15.4680000
  52.9731452 138.9530028  16.5047030  54.2535856 139.5802769  15.4397438
  52.5477595 139.7016492  14.9472334  54.3550000 136.9350000  15.4800000
  55.1972631 137.3956268  15.4840257  51.0300000 137.6620000  13.9090000
  51.0470000 137.5680000  12.6810000  50.0950000 138.3200000  14.5050000
  50.0055112 138.3899733  15.5085910  49.0410000 138.8960000  13.6740000
  48.6466691 138.1761635  12.9567568  47.8560000 139.4630000  14.5580000
  47.5903072 138.6988859  15.2885049  48.2320000 140.7830000  15.3000000
  48.4973832 141.5477804  14.5700799  47.3810587 141.1239855  15.8896851
  49.0806107 140.6007152  15.9593416  46.5220000 139.7050000  13.7810000
  45.8591420 140.2281693  14.4702126  46.7703720 140.3619256  12.9474176
  45.8150000 138.4420000  13.2470000  45.5658842 137.7847570  14.0801103
  44.9017850 138.7291298  12.7257571  46.4771156 137.9185119  12.5573167
  49.5990000 139.9450000  12.7430000  50.5490000 140.6480000  13.1040000
  49.0590000 140.0130000  11.5820000  48.3316847 139.3590631  11.3300511
  49.4740000 140.9890000  10.5990000  50.3310397 141.5734321  10.9336958
  49.8310000 140.3130000   9.2670000  48.9792922 139.7312870   8.9144325
  50.0811878 141.0743277   8.5281587  50.6862540 139.6529230   9.4116999
  48.3160000 141.9530000  10.4260000  47.1610000 141.6300000  10.7230000
  48.6150000 143.1430000   9.9260000  49.5571741 143.4223846   9.6928660
  47.5470000 144.1130000   9.7560000  46.6005560 143.5942850   9.6034296
  47.4220000 145.0070000  10.9990000  47.2488114 144.3561800  11.8560521
  48.3705973 145.5287886  11.1254905  46.2810000 146.0350000  10.8970000
  46.4672878 146.7085773  10.0605245  45.3520751 145.4912740  10.7250620
  46.1310000 146.8690000  12.1730000  46.4460000 148.0650000  12.1780000
  45.6330000 146.2570000  13.2490000  45.5178854 146.7712303  14.1106364
  45.3734280 145.2823145  13.1969234  47.7810000 144.9590000   8.5300000
  48.8090000 145.6230000   8.4230000  46.8220000 144.9000000   7.6130000
  46.1665081 144.1324050   7.6480475  46.6760000 145.8810000   6.5550000
  47.3855762 145.6955398   5.7486463  45.2680000 145.8460000   5.9810000
  44.5442520 145.8026624   6.7948862  45.1550001 144.9660364   5.3477582
  44.9020000 147.2680000   4.9460000  46.9580000 147.2590000   7.1140000
  46.2440000 147.7410000   7.9890000  47.8740000 148.0130000   6.4950000
  48.4434755 147.6080993   5.7657179  48.1520000 149.4140000   6.9110000
  48.1736846 149.4741431   7.9991231  49.5040000 149.8900000   6.3670000
  50.2628324 149.1846092   6.7056685  49.4480704 149.8679411   5.2786594
  49.8780000 151.3070000   6.8320000  49.1346249 151.9966374   6.4321317
  49.8382849 151.3222755   7.9211701  51.2620000 151.7310000   6.3700000
  51.9977260 151.0313807   6.7666598  51.2932949 151.7115325   5.2806235
  51.5840000 153.1460000   6.8650000  50.8319875 153.8213825   6.4570339
  51.5164152 153.1423452   7.9528962  52.9450000 153.6080000   6.4520000
  53.0076928 153.6118705   5.4439552  53.1044525 154.5415876   6.8028405
  53.6420050 152.9825528   6.8302843  47.0140000 150.3540000   6.4790000
  46.7810000 151.3320000   7.2140000  46.3270000 150.0900000   5.3580000
  46.5683831 149.2610405   4.8339202  45.3010000 151.0200000   4.7840000
  45.7016484 152.0308537   4.7081397  44.8550000 150.5320000   3.3750000
  44.5305690 149.4939785   3.4481866  43.7130000 151.3830000   2.8470000
  44.0368423 152.4211545   2.7730940  43.4174083 151.0240891   1.8611454
  42.8640724 151.3153136   3.5273232  46.0310000 150.5780000   2.3940000
  46.8023850 149.9201005   2.7942926  45.6684897 150.1779289   1.4470951
  46.6200000 151.9770000   2.1660000  46.9831659 152.3775589   3.1124476
  47.4464156 151.9129194   1.4581652  45.8492693 152.6353882   1.7652519
  44.0830000 151.2400000   5.6970000  43.7190000 152.4230000   5.8590000
  43.4720000 150.1900000   6.2640000  43.8368187 149.2709133   6.0583622
  42.2480000 150.2930000   7.1250000  42.0411990 151.3476416   7.3068361
  41.0470000 149.6760000   6.4200000  41.0696583 149.9413664   5.3630387
  40.1281889 150.0530584   6.8691249  41.0370000 147.8680000   6.4920000
  42.4700000 149.6270000   8.4910000  41.5240000 149.6900000   9.3050000
  43.6250000 148.9990000   8.7320000  44.2345134 148.8879691   7.9343379
  44.0290000 148.3720000  10.0230000  45.1025529 148.1963234   9.9542892
  43.7670000 149.3190000  11.1720000  42.6952591 149.4974864  11.2592591
  44.1381474 148.8793207  12.0977602  44.2784277 150.2639292  10.9885613
  43.3610000 147.0060000  10.2690000  43.6010000 146.4610000  11.3670000
  42.5850000 146.4480000   9.3280000  42.4324180 146.9254059   8.4511296
  41.8940000 145.1900000   9.5570000  41.4377552 145.1940103  10.5469110
  40.7980000 144.9860000   8.5160000  41.2070251 145.1894762   7.5263560
  40.4544187 143.9525513   8.5611193  39.7020000 145.8620000   8.7660000
  39.0220918 145.7211074   8.1030717  42.9170000 144.0550000   9.5320000
  43.9370000 144.1190000   8.8420000  42.6790000 143.0360000  10.3600000
  41.8526386 143.0269904  10.9406419  43.6370000 141.9410000  10.5010000
  44.6486017 142.3438777  10.5505056  43.3680000 141.1460000  11.7690000
  42.6360210 140.3496262  11.6344833  44.3119450 140.7179719  12.1064313
  42.8670000 142.0020000  12.8800000  41.6440000 142.6320000  12.8250000
  41.4730000 143.3490000  13.9190000  40.5602196 143.9257721  14.0682143
  42.5410000 143.2080000  14.6790000  42.6847119 143.6346290  15.5831208
  43.4390000 142.3820000  14.0450000  44.3987609 142.1600544  14.5115838
  43.5510000 141.0700000   9.2550000  42.4510000 140.6740000   8.8410000
  44.7080000 140.8150000   8.6330000  45.5926550 141.1050060   9.0246393
  44.7090000 140.1720000   7.3260000  43.6900577 140.1454237   6.9398013
  45.6130000 140.9160000   6.3330000  46.6221442 140.9823489   6.7396032
  45.6470000 140.1670000   5.0230000  44.6382074 140.1006438   4.6155262
  46.2889255 140.6955308   4.3182393  46.0384534 139.1631677   5.1878760
  45.0890000 142.3430000   6.1020000  44.7543678 142.7084652   7.0728539
  45.9418683 142.9330513   5.7665083  43.9660000 142.4700000   5.1030000
  43.1125506 141.8805480   5.4380676  43.6727403 143.5162209   5.0162833
  44.3000507 142.1051317   4.1317219  45.1380000 138.7170000   7.4710000
  44.6520000 137.8310000   6.7420000  46.0200000 138.4440000   8.4100000
  46.4803823 139.1492564   8.9674593  46.3450000 137.0590000   8.6540000
  45.4859588 136.5320294   9.0692703  46.6582695 136.5713321   7.7308848
  47.4690000 137.0070000   9.6370000  47.4590000 137.7950000  10.5860000
  48.3740000 136.0350000   9.4620000  48.2224634 135.3965971   8.6941604
  49.5590000 135.8530000  10.2870000  49.6391999 136.6596632  11.0156712
  49.4610000 134.5220000  11.0390000  49.3357831 133.7080838  10.3248849
  50.3966266 134.3876757  11.5818259  48.3610000 134.3840000  12.0420000
  48.5190000 134.1710000  13.3450000  49.5459955 134.0804436  13.6988073
  47.3300000 134.1120000  13.9630000  47.1893532 133.9501210  14.9499717
  46.3440000 134.3000000  13.0450000  44.9780000 134.3220000  13.1920000
  44.5521623 134.2044091  14.1884604  44.2510000 134.4890000  12.0840000
  43.1637565 134.5170316  12.1562195  44.8450000 134.6280000  10.8410000
  44.2294513 134.7366614   9.9480319  46.1650000 134.6340000  10.6930000
  46.5726289 134.6953631   9.6839539  46.9590000 134.4790000  11.8210000
  50.8900000 135.8030000   9.5120000  51.0220000 135.1430000   8.4780000
  51.9350000 136.4890000  10.0150000  51.7794709 137.1671341  10.7471504
  53.3200000 136.3290000   9.4810000  53.2531288 135.9797262   8.4506432
  54.1330000 137.6280000   9.5060000  53.5996222 138.3624439   8.9025106
  54.1758612 137.9702821  10.5399758  55.5610000 137.4590000   8.9630000
  56.0803083 136.7478566   9.6054133  55.4885390 137.0513378   7.9547029
  56.3350000 138.7670000   8.9260000  55.8082174 139.4723941   8.2833351
  56.3952495 139.1717793   9.9362590  57.7500000 138.5390000   8.3820000
  58.2648127 137.8627576   9.0644696  57.6592283 138.0672614   7.4035715
  58.5320000 139.8070000   8.2530000  58.6165951 140.2440620   9.1595982
  59.4522164 139.5997545   7.8919584  58.0553520 140.4335927   7.6203173
  53.8980000 135.2310000  10.3680000  53.4930000 135.2030000  11.5270000
  54.7970000 134.3940000   9.8720000  55.0483857 134.5123609   8.9009720
  55.3430000 133.2330000  10.5990000  54.9566601 133.2443166  11.6181725
  54.9640000 131.8980000   9.9460000  55.1086930 131.9690000   8.8679823
  55.5913423 131.1006860  10.3445374  53.5350000 131.4710000  10.1620000
  52.5090000 132.0230000   9.4170000  52.7430637 132.7733037   8.6617792
  51.1940000 131.6320000   9.6220000  50.3982293 132.0766658   9.0244031
  50.8930000 130.6890000  10.5730000  49.8597812 130.3821234  10.7354366
  51.9000000 130.1320000  11.3210000  51.6617306 129.3836808  12.0768745
  53.2170000 130.5180000  11.1180000  54.0137190 130.0712605  11.7127794
  56.8570000 133.3930000  10.7800000  57.4160000 134.2350000  10.0610000
  57.4830000 132.6290000  11.6900000  56.9016734 131.9915890  12.2152294
  58.9310000 132.6910000  12.0140000  59.5241749 132.8240042  11.1092610
  59.1980000 133.8730000  12.9530000  60.2578612 133.8447595  13.2059762
  58.8550000 135.2260000  12.3700000  57.7951246 135.2551618  12.1171891
  59.0750845 136.0037049  13.1013255  59.4472783 135.3954693  11.4707853
  58.4080000 133.6630000  14.1260000  58.5493564 134.3866533  14.7407720
  59.3790000 131.3580000  12.6440000  59.0420000 131.1590000  13.8140000
  60.1490000 130.4980000  11.9510000  60.4174191 130.7815999  11.0195379
  60.5900000 129.1640000  12.4360000  59.7347932 128.4896393  12.4802508
  61.6120000 128.5840000  11.4940000  62.4784126 129.2436486  11.4461152
  61.9224329 127.6028222  11.8531960  61.1758674 128.4851649  10.4999581
  61.1750000 129.2640000  13.8520000  61.8620000 130.2710000  14.1180000
  60.9540000 128.2510000  14.7180000  60.3991165 127.4548803  14.4380052
  61.4460000 128.3010000  16.0820000  61.2462224 129.3188043  16.4170561
  60.6240000 127.3260000  16.9500000  60.9376938 127.4312691  17.9885638
  59.1260000 127.6230000  16.8370000  58.8114528 127.5174720  15.7987209
  58.5682407 126.9221154  17.4580994  58.9305167 128.6411192  17.1736306
  60.7430000 126.0030000  16.4150000  60.2325500 125.3932494  16.9528154
  62.9350000 127.9780000  16.1990000  63.4890000 127.9290000  17.3030000
  63.5990000 127.7350000  15.0620000  63.1242532 127.7942755  14.1725050
  64.9970000 127.2900000  15.0760000  65.5129207 127.7438491  15.9221360
  65.0950000 125.7650000  15.2030000  64.5156936 125.3281853  14.3895528
  66.1438758 125.4910880  15.0892816  64.5700000 125.2350000  16.5480000
  63.5956249 125.6889649  16.7285823  64.4561432 124.1545531  16.4598349
  65.4990000 125.5530000  17.7070000  66.4720759 125.1004666  17.5161184
  65.6109010 126.6343932  17.7855260  64.9280000 125.0020000  19.0190000
  64.7320345 123.9391356  18.8775172  65.6845959 125.1315674  19.7928696
  63.6670000 125.6900000  19.4350000  62.9656540 125.5696948  18.7182433
  63.3353005 125.2901119  20.3011206  63.8484655 126.6748142  19.5665688
  65.7130000 127.7950000  13.8340000  65.1400000 127.7790000  12.7480000
  66.9790000 128.2150000  14.0040000  67.3772654 128.2085631  14.9321393
  67.7700000 128.7790000  12.9160000  67.1878677 129.5300129  12.3819581
  69.0330000 129.4440000  13.4740000  69.5159835 129.9751627  12.6538218
  68.7205833 130.1589074  14.2351854  70.0240000 128.4410000  14.0890000
  69.4981758 127.8865549  14.8663033  70.3357752 127.7547392  13.3016345
  71.2470000 129.1140000  14.6870000  71.7393005 129.7050326  13.9147179
  70.9297006 129.7692097  15.4982465  72.2260000 128.0660000  15.2300000
  71.7231571 127.5222921  16.0297695  72.4637147 127.3789287  14.4178892
  73.4880000 128.6710000  15.7560000  73.2679857 129.3073646  16.5088171
  74.0941766 127.9398120  16.0995319  73.9543166 129.1745007  15.0149636
  68.1360000 127.7780000  11.8190000  68.7050000 128.1930000  10.8040000
  67.8190000 126.4880000  11.9750000  67.3787648 126.1881493  12.8331270
  68.1490000 125.4750000  10.9750000  68.8798155 125.8682546  10.2683468
  68.7500000 124.2380000  11.6670000  68.6697348 123.4110565  10.9614355
  69.8012622 124.4346771  11.8773947  68.0320000 123.8720000  12.9630000
  68.3720000 124.4510000  14.0210000  67.1410000 122.9920000  12.9360000
  66.9540000 125.0560000  10.1100000  67.0520000 124.0840000   9.3570000
  65.8570000 125.8180000  10.1890000  65.7992539 126.5550084  10.8771739
  64.6400000 125.5020000   9.3880000  64.7956882 124.5605697   8.8611515
  63.3860000 125.3700000  10.2710000  63.2989728 126.3122139  10.8120717
  62.5451457 125.2664454   9.5851863  63.3780000 124.2190000  11.2570000
  63.4466475 123.2885594  10.6933791  64.2513732 124.3179919  11.9016098
  61.9010000 124.1870000  12.2680000  60.6760000 123.5850000  11.0860000
  60.9732087 122.6010132  10.7233211  59.7039824 123.5134390  11.5740179
  60.6102479 124.2766170  10.2460930  64.4830000 126.5170000   8.2500000
  64.9540000 127.6600000   8.4120000  63.8460000 126.1120000   7.1460000
  63.5307226 125.1551777   7.0739538  63.6440000 127.0110000   5.9780000
  63.7898493 128.0474431   6.2823235  64.6270000 126.6880000   4.8810000
  64.2818394 127.1444374   3.9532994  65.6002655 127.0998932   5.1478299
  64.7400000 125.2860000   4.7040000  65.3691552 125.1016943   4.0027191
  62.1950000 126.8930000   5.4840000  61.5850000 125.8330000   5.7280000
  61.6050000 127.9110000   4.8140000  60.4970000 127.8550000   3.9280000
  59.7251350 127.2511801   4.4052066  60.8308425 127.3617348   3.0151267
  60.0520000 129.2790000   3.6840000  59.3272355 129.5928402   4.4352122
  59.6138981 129.3831532   2.6913670  61.3550000 130.0800000   3.7940000
  61.2059240 131.1092793   4.1202814  61.9300506 130.0725895   2.8680618
  62.0930000 129.2990000   4.8690000  63.1491490 129.2983481   4.5994687
  61.9220000 129.9180000   6.2610000  60.9890000 129.5660000   6.9460000
  62.8010000 130.8510000   6.6340000  63.5513548 131.1447844   6.0251012
  62.7500000 131.4110000   8.0110000  62.7792085 130.5995080   8.7381360
  63.9420000 132.3390000   8.2650000  64.3223085 132.6558451   7.2938801
  63.5703264 133.2068309   8.8098194  65.0640000 131.6830000   9.0600000
  65.5313313 130.9317749   8.4233186  65.8007257 132.4400930   9.3286031
  64.5800000 131.0120000  10.3220000  63.9310000 131.6250000  11.1670000
  64.9090000 129.7390000  10.4660000  64.6143600 129.2345109  11.2898808
  65.4533415 129.2773109   9.7514114  61.4160000 132.1240000   8.2550000
  60.8790000 131.9730000   9.3680000  60.8950000 132.8620000   7.2670000
  61.3450852 132.9586572   6.3680117  59.6610000 133.6550000   7.5280000
  59.0966375 133.2011797   8.3426418  60.0180000 135.0930000   7.9210000
  60.6251691 135.5130622   7.1191317  59.0867427 135.6535257   8.0026752
  60.7890000 135.1840000   9.2490000  60.1444593 134.7934579  10.0364929
  61.6769257 134.5576740   9.1629430  61.2030000 136.6040000   9.5920000
  61.8383528 136.9902608   8.7949879  60.3098121 137.2230542   9.6761825
  61.9720000 136.6340000  10.9180000  61.3045367 136.2701005  11.6991342
  62.8234898 135.9598620  10.8252518  62.4570000 138.0030000  11.2750000
  61.6681107 138.6277288  11.3614132  62.9545562 137.9655130  12.1531415
  63.0758401 138.3402081  10.5515177  58.6910000 133.6390000   6.3430000
  59.1130000 134.0360000   5.2370000  57.4450000 133.2020000   6.5630000
  57.2070706 132.8001257   7.4585367  56.4150000 133.2590000   5.5370000
  56.7249837 133.9613661   4.7632486  56.1690000 131.9020000   4.8920000
  55.4270097 132.0767070   4.1128805  57.0604880 131.4563925   4.4506576
  55.5940000 130.8850000   5.8050000  56.4180000 130.1210000   6.5920000
  57.4881678 130.3255827   6.5605894  55.9350000 129.1280000   7.3990000
  56.6121093 128.5346679   8.0134760  54.5830000 128.8810000   7.4310000
  54.1747551 128.1120522   8.0868623  53.7200000 129.6350000   6.6030000
  52.6469667 129.4435707   6.5956091  54.2510000 130.6240000   5.7970000
  53.5981773 131.2055077   5.1460228  55.1250000 133.7600000   6.1460000
  54.9820000 133.8640000   7.3580000  54.1930000 134.0920000   5.2810000
  54.4064541 134.0496483   4.2947227  52.8890000 134.6000000   5.6840000
  52.8780608 134.8029757   6.7548783  52.5900000 135.9060000   4.9340000
  52.4540684 135.7123462   3.8699887  51.6706493 136.3204230   5.3477004
  53.6870000 137.0350000   5.0510000  54.9680000 136.9910000   4.5330000
  55.2598589 136.0801186   4.0103019  55.6360000 138.1860000   4.8100000
  56.5861725 138.3957001   4.5392647  54.7990000 139.0280000   5.5060000
  55.0230000 140.3310000   5.9930000  55.9952901 140.7897868   5.8133747
  53.9960000 140.9460000   6.6680000  54.1289227 141.9585562   7.0490005
  52.7730000 140.2960000   6.8790000  51.9713609 140.7827530   7.4344690
  52.5410000 139.0020000   6.3840000  51.5662642 138.5504387   6.5686164
  53.5640000 138.3490000   5.6860000  51.8450000 133.5130000   5.4330000
  51.9980000 132.7020000   4.5150000  50.8450000 133.4270000   6.3130000
  50.9292765 133.9465908   7.1749874  49.6400000 132.6270000   6.1010000
  49.6414723 132.1583643   5.1168874  49.5314458 131.8600723   6.8679010
  48.4700000 133.5810000   6.1900000  47.9890000 133.9230000   7.2730000
  48.0110000 134.0550000   5.0560000  48.4562946 133.7885970   4.1894889
  46.9150000 135.0100000   5.0030000  46.9451357 135.6772016   5.8644134
  47.0530000 135.8570000   3.7170000  46.7700284 135.1651804   2.9236452
  46.3547693 136.6938136   3.7348017  48.4920000 136.3880000   3.4530000
  48.8731069 136.6781381   4.4321212  49.5040000 135.4300000   2.7670000
  49.1237727 135.1397739   1.7875640  50.4618689 135.9365759   2.6488105
  49.6375555 134.5404006   3.3825292  48.5010000 137.7180000   2.6140000
  47.9526291 138.4912852   3.1519766  49.5296483 138.0436615   2.4593117
  48.0269692 137.5422454   1.6483375  45.5650000 134.2710000   5.0630000
  45.4790000 133.0450000   4.8970000  44.5100000 135.0180000   5.3550000
  44.6132007 135.9829910   5.6347166  43.1770000 134.4570000   5.3050000
  43.1639698 133.3684700   5.3600616  42.2660000 135.0160000   6.4110000
  41.2511466 134.6603425   6.2330098  42.7160000 134.5800000   7.7710000
  43.7306734 134.9357101   7.9499074  42.0477789 134.9947704   8.5256823
  42.6975841 133.4916893   7.8288029  42.1840000 136.4590000   6.2750000
  41.6162820 136.8135147   6.9631976  42.5860000 134.7820000   3.9250000
  42.6110000 135.9480000   3.4940000  41.9930000 133.7690000   3.2650000
  42.1403755 132.8037294   3.5231327  41.1600000 134.0540000   2.1050000
  41.7703390 134.4459225   1.2913771  40.4770000 132.7680000   1.6290000
  41.2686257 132.0208559   1.5723988  39.7790214 132.4977435   2.4213935
  39.7250000 132.8260000   0.2770000  38.6617079 132.9693921   0.4692222
  40.1052558 133.6663447  -0.3037997  39.9360000 131.4950000  -0.5290000
  39.8466253 131.7041128  -1.5950127  40.9309879 131.1029202  -0.3183535
  38.9470000 130.4820000  -0.1660000  39.2782340 129.6507169   0.3023502
  37.6540000 130.5850000  -0.4310000  37.1820000 131.6060000  -1.1380000
  37.8148550 132.3151359  -1.4796445  36.1924924 131.6683542  -1.3305778
  36.8180000 129.6610000   0.0350000  37.1750257 128.8923705   0.5844010
  35.8301248 129.7323723  -0.1627558  40.1440000 135.1230000   2.4540000
  39.9640000 136.0860000   1.7000000  39.5390000 135.0280000   3.6530000
  39.8729434 134.3676151   4.3403666  38.3450000 135.8170000   3.9700000
  37.5333764 135.5637676   3.2879152  37.8910000 135.5110000   5.4110000
  37.1493358 136.2674429   5.6675688  37.4147666 134.5309558   5.3824483
  38.9230000 135.5080000   6.3900000  38.5470237 135.3092143   7.2506543
  38.5920000 137.3150000   3.7810000  37.7020000 138.0720000   3.3520000
  39.8020000 137.7530000   4.0830000  40.5020653 137.0811729   4.3634572
  40.1530000 139.1610000   4.1020000  39.2779972 139.7191845   4.4350154
  41.2910000 139.3680000   5.1280000  42.1770975 138.8224084   4.8035606
  41.5255789 140.4298920   5.2018813  40.9737311 138.9978372   6.1028944
  40.5580000 139.7200000   2.7270000  40.7770000 140.9380000   2.6150000
  40.6340000 138.8890000   1.6840000  40.2643473 137.9524181   1.7631863
  41.2830000 139.2740000   0.4330000  41.6545708 140.2951245   0.5186688
  42.4560000 138.3540000   0.1070000  42.0402983 137.3470246   0.1429426
  42.8689347 138.5408769  -0.8842931  43.5590000 138.4850000   1.1490000
  43.1067806 138.4054876   2.1375728  44.5950000 137.4330000   0.9930000
  45.0480244 137.5121727   0.0047696  45.3629342 137.5626617   1.7556045
  44.1357070 136.4507353   1.1039341  44.1790000 139.8620000   1.1200000
  43.4140502 140.6099221   1.3287193  44.9627324 139.9241258   1.8749869
  44.6082784 140.0470825   0.1353358  40.2760000 139.2510000  -0.6970000
  39.6740000 138.2090000  -0.9580000  40.0970000 140.3960000  -1.3310000
  40.5274461 141.2097057  -0.9154299  39.2670000 140.5820000  -2.5190000
  38.7078521 139.6675239  -2.7169554  38.2770000 141.7730000  -2.3710000
  38.8489233 142.6915134  -2.2393290  37.3950000 141.8980000  -3.6020000
  36.8223826 140.9799764  -3.7340709  36.7110251 142.7372636  -3.4758431
  38.0180003 142.0665531  -4.4803847  37.4020000 141.5920000  -1.1250000
  38.0729046 141.5875255  -0.2659495  36.7475193 142.4618820  -1.0696843
  36.5540000 140.3130000  -1.1180000  37.2078566 139.4426178  -1.1728288
  35.9684944 140.2696636  -0.1996295  35.8824725 140.3169733  -1.9765656
  40.2280000 140.7500000  -3.7050000  41.1090000 141.6110000  -3.6550000
  40.1270000 139.9230000  -4.7470000  39.4160000 138.6650000  -4.9170000
  38.4360963 138.8776883  -5.3443789  39.2921287 138.2035943  -3.9372757
  40.2840000 137.8380000  -5.8380000  39.6868566 137.1012086  -6.3752684
  41.0688228 137.3300022  -5.2775603  40.8800000 138.8800000  -6.7930000
  40.1797412 139.1496872  -7.5835728  41.8332527 138.5911166  -7.2356685
  41.0800000 140.0600000  -5.8550000  42.0962542 139.9944603  -5.4663739
  40.8870000 141.3970000  -6.5380000  39.8100000 141.9910000  -6.5110000
  41.9460000 141.8750000  -7.1600000  42.8428643 141.4128785  -7.1133363
  41.8460000 143.1050000  -7.9180000  41.4311760 143.8481061  -7.2369614
  43.2180000 143.5390000  -8.3200000  43.1447984 144.4668936  -8.8872347
  44.0650000 143.7580000  -7.1210000  44.1390530 142.8303566  -6.5534672
  45.0609196 144.0736794  -7.4317889  43.6179321 144.5310219  -6.4959656
  43.8230000 142.4590000  -9.0210000  44.7088957 142.7100551  -9.2925889
  41.0010000 142.9820000  -9.1630000  40.9060000 142.0980000  -9.6200000
  40.5370000 143.7890000  -9.5280000  42.6400000 147.4410000   4.0430000
