default_name
   159
  31.1520000 121.8110000  -0.7230000  32.1092000 121.8110000  -0.7230000
  30.9120120 122.7376270  -0.7230000  41.0680000 117.9530000  -3.1690000
  42.0252000 117.9530000  -3.1690000  40.8280120 118.8796270  -3.1690000
  28.8920000 131.1080000  -9.7710000  29.8492000 131.1080000  -9.7710000
  28.6520120 132.0346270  -9.7710000  35.1040000 121.1520000 -22.4690000
  36.0612000 121.1520000 -22.4690000  34.8640120 122.0786270 -22.4690000
  31.9240000 114.2620000 -21.1880000  32.8812000 114.2620000 -21.1880000
  31.6840120 115.1886270 -21.1880000  28.6460000 141.3720000  23.1950000
  29.6032000 141.3720000  23.1950000  28.4060120 142.2986270  23.1950000
  39.4210000 143.3330000  16.0200000  40.3782000 143.3330000  16.0200000
  39.1810120 144.2596270  16.0200000  34.1600000 139.6820000  34.3240000
  35.1172000 139.6820000  34.3240000  33.9200120 140.6086270  34.3240000
  45.4980000 145.1580000  19.7970000  46.4552000 145.1580000  19.7970000
  45.2580120 146.0846270  19.7970000  49.9450000 140.9950000  22.1750000
  50.9022000 140.9950000  22.1750000  49.7050120 141.9216270  22.1750000
  41.5080000 155.2570000  27.6050000  42.4652000 155.2570000  27.6050000
  41.2680120 156.1836270  27.6050000  28.1650000 160.7650000  27.1780000
  29.1222000 160.7650000  27.1780000  27.9250120 161.6916270  27.1780000
  48.1310000 158.6560000  11.8610000  49.0882000 158.6560000  11.8610000
  47.8910120 159.5826270  11.8610000  48.2160000 145.7890000  20.2660000
  49.1732000 145.7890000  20.2660000  47.9760120 146.7156270  20.2660000
  53.6310000 153.5290000  41.1110000  54.5882000 153.5290000  41.1110000
  53.3910120 154.4556270  41.1110000  54.3150000 149.6490000  38.4310000
  55.2722000 149.6490000  38.4310000  54.0750120 150.5756270  38.4310000
  59.8160000 153.5910000  41.2470000  60.7732000 153.5910000  41.2470000
  59.5760120 154.5176270  41.2470000  63.7300000 160.4310000  39.2290000
  64.6872000 160.4310000  39.2290000  63.4900120 161.3576270  39.2290000
  67.6680000 154.8240000  34.6770000  68.6252000 154.8240000  34.6770000
  67.4280120 155.7506270  34.6770000  71.1580000 161.5800000  33.0980000
  72.1152000 161.5800000  33.0980000  70.9180120 162.5066270  33.0980000
  65.6190000 160.4800000  37.3590000  66.5762000 160.4800000  37.3590000
  65.3790120 161.4066270  37.3590000  66.4700000 163.2180000  34.2890000
  67.4272000 163.2180000  34.2890000  66.2300120 164.1446270  34.2890000
  71.2100000 161.2490000  29.6200000  72.1672000 161.2490000  29.6200000
  70.9700120 162.1756270  29.6200000  67.5810000 156.9510000  27.0190000
  68.5382000 156.9510000  27.0190000  67.3410120 157.8776270  27.0190000
  63.2570000 166.4330000  22.9090000  64.2142000 166.4330000  22.9090000
  63.0170120 167.3596270  22.9090000  60.7760000 160.1910000  21.0990000
  61.7332000 160.1910000  21.0990000  60.5360120 161.1176270  21.0990000
  57.3710000 164.6750000  18.4050000  58.3282000 164.6750000  18.4050000
  57.1310120 165.6016270  18.4050000  61.2390000 168.0690000  22.0170000
  62.1962000 168.0690000  22.0170000  60.9990120 168.9956270  22.0170000
  61.2150000 167.8370000  17.3930000  62.1722000 167.8370000  17.3930000
  60.9750120 168.7636270  17.3930000  60.7560000 161.8130000  19.0070000
  61.7132000 161.8130000  19.0070000  60.5160120 162.7396270  19.0070000
  55.6410000 161.0460000  17.0910000  56.5982000 161.0460000  17.0910000
  55.4010120 161.9726270  17.0910000  44.5440000 168.1330000  13.8910000
  45.5012000 168.1330000  13.8910000  44.3040120 169.0596270  13.8910000
  57.8780000 152.2530000  17.4930000  58.8352000 152.2530000  17.4930000
  57.6380120 153.1796270  17.4930000  49.0330000 147.4100000  17.0420000
  49.9902000 147.4100000  17.0420000  48.7930120 148.3366270  17.0420000
  45.7980000 174.4000000  20.3300000  46.7552000 174.4000000  20.3300000
  45.5580120 175.3266270  20.3300000  37.3850000 183.4300000  22.1190000
  38.3422000 183.4300000  22.1190000  37.1450120 184.3566270  22.1190000
  43.2570000 177.6920000  25.9570000  44.2142000 177.6920000  25.9570000
  43.0170120 178.6186270  25.9570000  33.1990000 182.9290000  38.3260000
  34.1562000 182.9290000  38.3260000  32.9590120 183.8556270  38.3260000
  45.5570000 178.3810000  27.1820000  46.5142000 178.3810000  27.1820000
  45.3170120 179.3076270  27.1820000  55.8800000 175.4590000  40.9240000
  56.8372000 175.4590000  40.9240000  55.6400120 176.3856270  40.9240000
  67.0760000 175.1810000  24.4320000  68.0332000 175.1810000  24.4320000
  66.8360120 176.1076270  24.4320000  70.9350000 174.3520000  25.3380000
  71.8922000 174.3520000  25.3380000  70.6950120 175.2786270  25.3380000
  62.7290000 181.0090000  32.6270000  63.6862000 181.0090000  32.6270000
  62.4890120 181.9356270  32.6270000  54.0360000 183.1490000  28.4440000
  54.9932000 183.1490000  28.4440000  53.7960120 184.0756270  28.4440000
  53.5800000 183.8370000  25.8700000  54.5372000 183.8370000  25.8700000
  53.3400120 184.7636270  25.8700000  53.0200000 176.1860000  17.5470000
  53.9772000 176.1860000  17.5470000  52.7800120 177.1126270  17.5470000
  61.0640000 170.5290000  17.2510000  62.0212000 170.5290000  17.2510000
  60.8240120 171.4556270  17.2510000  68.3210000 168.6250000  16.6580000
  69.2782000 168.6250000  16.6580000  68.0810120 169.5516270  16.6580000
  68.5750000 166.9940000  14.4540000  69.5322000 166.9940000  14.4540000
  68.3350120 167.9206270  14.4540000  68.5980000 171.2250000  16.7660000
  69.5552000 171.2250000  16.7660000  68.3580120 172.1516270  16.7660000
  73.2900000 174.7070000  21.2250000  74.2472000 174.7070000  21.2250000
  73.0500120 175.6336270  21.2250000  70.2900000 177.1820000  18.6890000
  71.2472000 177.1820000  18.6890000  70.0500120 178.1086270  18.6890000
  77.2990000 169.6410000  22.0190000  78.2562000 169.6410000  22.0190000
  77.0590120 170.5676270  22.0190000
